ITEM: TIMESTEP
100000
ITEM: NUMBER OF ATOMS
400
ITEM: BOX BOUNDS pp pp pp
0.0000000000000000e+00 2.0000000000000000e+01
0.0000000000000000e+00 2.0000000000000000e+01
-5.0000000000000000e-01 5.0000000000000000e-01
ITEM: ATOMS id type xs ys zs
305 1 0.108096 0.0192417 0.5
383 1 0.232269 0.0291893 0.5
45 1 0.282463 0.0157837 0.5
57 1 0.374523 0.0306272 0.5
163 1 0.423794 0.0120231 0.5
21 1 0.482037 0.0127888 0.5
240 1 0.0439956 0.0342075 0.5
375 1 0.129482 0.0644453 0.5
9 1 0.17816 0.0493785 0.5
49 1 0.321846 0.0470817 0.5
8 1 0.408191 0.066396 0.5
35 1 0.460146 0.0622794 0.5
56 1 0.0256296 0.0852686 0.5
202 1 0.0781126 0.0801256 0.5
275 1 0.164629 0.097863 0.5
318 1 0.210135 0.0878721 0.5
276 1 0.2573 0.0744485 0.5
30 1 0.318351 0.0956996 0.5
291 1 0.36662 0.0912216 0.5
243 1 0.495451 0.0969863 0.5
372 1 0.11887 0.10916 0.5
205 1 0.243728 0.12165 0.5
399 1 0.441578 0.113698 0.5
178 1 0.0205278 0.145787 0.5
95 1 0.0698234 0.134341 0.5
218 1 0.143468 0.158879 0.5
12 1 0.195789 0.133992 0.5
231 1 0.289261 0.135052 0.5
74 1 0.348023 0.135398 0.5
41 1 0.395287 0.137439 0.5
132 1 0.474482 0.154077 0.5
186 1 0.0488451 0.184391 0.5
16 1 0.0981158 0.182967 0.5
33 1 0.183862 0.18381 0.5
303 1 0.259642 0.184246 0.5
274 1 0.316715 0.182051 0.5
188 1 0.364852 0.179274 0.5
396 1 0.422757 0.178707 0.5
365 1 0.0675003 0.232801 0.5
397 1 0.155581 0.225977 0.5
104 1 0.225424 0.216573 0.5
213 1 0.29171 0.228176 0.5
37 1 0.340718 0.233185 0.5
68 1 0.395462 0.225943 0.5
151 1 0.463571 0.201831 0.5
297 1 0.0239901 0.259321 0.5
54 1 0.109589 0.253548 0.5
260 1 0.201289 0.262045 0.5
339 1 0.24977 0.259414 0.5
269 1 0.442073 0.247497 0.5
31 1 0.497033 0.241128 0.5
340 1 0.0587495 0.293018 0.5
3 1 0.156886 0.281443 0.5
351 1 0.315606 0.275086 0.5
363 1 0.371049 0.271196 0.5
147 1 0.417732 0.293524 0.5
116 1 0.467166 0.29404 0.5
345 1 0.0303197 0.333 0.5
127 1 0.109875 0.303936 0.5
75 1 0.182437 0.326241 0.5
70 1 0.233305 0.30195 0.5
317 1 0.287011 0.317315 0.5
281 1 0.340571 0.317661 0.5
279 1 0.0771426 0.358055 0.5
280 1 0.137348 0.345456 0.5
141 1 0.224579 0.359319 0.5
304 1 0.39427 0.337464 0.5
241 1 0.442956 0.33793 0.5
38 1 0.0330291 0.380938 0.5
100 1 0.114083 0.390236 0.5
193 1 0.176094 0.375601 0.5
224 1 0.265194 0.384001 0.5
359 1 0.309599 0.367038 0.5
173 1 0.356299 0.369041 0.5
326 1 0.410967 0.396362 0.5
342 1 0.459972 0.386308 0.5
55 1 0.0227792 0.432523 0.5
27 1 0.0730172 0.41593 0.5
390 1 0.163134 0.422718 0.5
22 1 0.212843 0.411167 0.5
148 1 0.304702 0.431164 0.5
354 1 0.351843 0.417578 0.5
338 1 0.495213 0.430144 0.5
145 1 0.0593733 0.463396 0.5
4 1 0.114851 0.451228 0.5
28 1 0.194403 0.464654 0.5
177 1 0.249731 0.450109 0.5
346 1 0.390587 0.44874 0.5
278 1 0.437233 0.437353 0.5
257 1 0.00595217 0.485046 0.5
81 1 0.150866 0.486537 0.5
203 1 0.23375 0.497646 0.5
331 1 0.281965 0.486387 0.5
137 1 0.33592 0.469705 0.5
320 1 0.379755 0.492743 0.5
201 1 0.428126 0.487732 0.5
270 1 0.476784 0.471908 0.5
129 1 0.0488359 0.511901 0.5
373 1 0.10469 0.503059 0.5
53 1 0.188153 0.52083 0.5
46 1 0.326012 0.518984 0.5
239 1 0.467356 0.520414 0.5
198 1 0.0265504 0.563949 0.5
313 1 0.0844492 0.546965 0.5
120 1 0.135488 0.541182 0.5
356 1 0.226579 0.548974 0.5
315 1 0.277039 0.533671 0.5
126 1 0.361031 0.55479 0.5
249 1 0.408408 0.534352 0.5
118 1 0.446058 0.565099 0.5
50 1 0.498439 0.558789 0.5
99 1 0.0728088 0.593678 0.5
115 1 0.124402 0.596379 0.5
382 1 0.171542 0.570527 0.5
195 1 0.223033 0.599605 0.5
181 1 0.270182 0.585291 0.5
117 1 0.318655 0.569171 0.5
265 1 0.400247 0.591578 0.5
77 1 0.0153226 0.611386 0.5
110 1 0.164217 0.624499 0.5
63 1 0.305385 0.626699 0.5
108 1 0.350699 0.613102 0.5
161 1 0.478742 0.612768 0.5
386 1 0.0451651 0.657478 0.5
262 1 0.09156 0.642803 0.5
254 1 0.209009 0.648334 0.5
400 1 0.258979 0.644313 0.5
191 1 0.336831 0.666183 0.5
332 1 0.383044 0.654193 0.5
227 1 0.432044 0.636349 0.5
92 1 0.0772981 0.692539 0.5
18 1 0.135655 0.667186 0.5
368 1 0.175689 0.697238 0.5
194 1 0.235653 0.690043 0.5
212 1 0.288154 0.685049 0.5
199 1 0.416513 0.692534 0.5
76 1 0.471508 0.666667 0.5
208 1 0.0291303 0.703589 0.5
358 1 0.124385 0.715983 0.5
107 1 0.318459 0.720691 0.5
26 1 0.369665 0.704438 0.5
327 1 0.462406 0.718899 0.5
162 1 0.026176 0.752102 0.5
168 1 0.0769384 0.742427 0.5
59 1 0.158703 0.75017 0.5
392 1 0.213169 0.738981 0.5
226 1 0.261964 0.735412 0.5
211 1 0.3594 0.752866 0.5
236 1 0.405692 0.741785 0.5
284 1 0.493674 0.755874 0.5
7 1 0.0652162 0.789241 0.5
34 1 0.116262 0.778181 0.5
172 1 0.204097 0.79521 0.5
60 1 0.249429 0.784947 0.5
5 1 0.314482 0.774461 0.5
288 1 0.401304 0.795182 0.5
330 1 0.446212 0.775974 0.5
230 1 0.0195956 0.808115 0.5
184 1 0.0994637 0.825234 0.5
220 1 0.157504 0.812386 0.5
367 1 0.241128 0.833085 0.5
135 1 0.287269 0.819618 0.5
277 1 0.35549 0.80941 0.5
204 1 0.434187 0.826847 0.5
393 1 0.484671 0.815765 0.5
66 1 0.000514728 0.857314 0.5
121 1 0.0522955 0.843129 0.5
142 1 0.135699 0.861783 0.5
248 1 0.189519 0.84849 0.5
187 1 0.33853 0.855908 0.5
307 1 0.388087 0.84873 0.5
295 1 0.0380324 0.895248 0.5
123 1 0.0893355 0.878599 0.5
333 1 0.173402 0.899055 0.5
197 1 0.230504 0.882257 0.5
336 1 0.27806 0.869391 0.5
250 1 0.378035 0.89447 0.5
214 1 0.428498 0.880072 0.5
139 1 0.477653 0.867899 0.5
210 1 0.0846797 0.928013 0.5
242 1 0.128305 0.911525 0.5
287 1 0.216836 0.931489 0.5
316 1 0.264219 0.918 0.5
128 1 0.320056 0.907315 0.5
381 1 0.410386 0.93318 0.5
272 1 0.461818 0.914699 0.5
341 1 0.0207961 0.943875 0.5
379 1 0.122456 0.960036 0.5
67 1 0.172324 0.947823 0.5
376 1 0.302865 0.954405 0.5
292 1 0.35526 0.93873 0.5
321 1 0.445315 0.966206 0.5
102 1 0.0641215 0.983445 0.5
166 1 0.15188 0.99844 0.5
234 1 0.206981 0.978615 0.5
47 1 0.258537 0.970418 0.5
394 1 0.333855 0.997978 0.5
86 1 0.38687 0.978313 0.5
294 1 0.614374 0.0220566 0.5
366 1 0.668615 0.00180308 0.5
314 1 0.754889 0.025813 0.5
380 1 0.800874 0.0102113 0.5
40 1 0.887384 0.01081 0.5
310 1 0.94702 0.0130143 0.5
96 1 0.998899 0.00114497 0.5
311 1 0.515372 0.05485 0.5
114 1 0.56871 0.0343185 0.5
14 1 0.654826 0.0485504 0.5
370 1 0.701461 0.0366348 0.5
300 1 0.787526 0.061962 0.5
64 1 0.842529 0.0408453 0.5
10 1 0.922672 0.0544634 0.5
228 1 0.992526 0.0484542 0.5
91 1 0.552522 0.0861822 0.5
216 1 0.607874 0.0726821 0.5
124 1 0.738114 0.0745002 0.5
13 1 0.831254 0.0926201 0.5
153 1 0.877303 0.0758659 0.5
51 1 0.965301 0.0941062 0.5
176 1 0.536262 0.130837 0.5
374 1 0.589953 0.114795 0.5
170 1 0.643242 0.103378 0.5
244 1 0.696817 0.100382 0.5
296 1 0.774233 0.110045 0.5
337 1 0.872872 0.127103 0.5
152 1 0.916978 0.11114 0.5
185 1 0.573204 0.165679 0.5
285 1 0.623266 0.147465 0.5
164 1 0.677066 0.146665 0.5
111 1 0.726915 0.14097 0.5
322 1 0.775326 0.157786 0.5
348 1 0.821309 0.140995 0.5
323 1 0.906138 0.165075 0.5
256 1 0.952806 0.148318 0.5
36 1 0.517788 0.175128 0.5
133 1 0.665199 0.195072 0.5
361 1 0.722984 0.192115 0.5
251 1 0.81568 0.189291 0.5
69 1 0.861221 0.183012 0.5
52 1 0.942157 0.196934 0.5
125 1 0.991166 0.187471 0.5
84 1 0.54626 0.216743 0.5
165 1 0.616837 0.20471 0.5
349 1 0.698614 0.232934 0.5
267 1 0.769015 0.206831 0.5
149 1 0.893426 0.218939 0.5
378 1 0.587696 0.243738 0.5
258 1 0.639165 0.251767 0.5
302 1 0.792178 0.25062 0.5
252 1 0.838222 0.233521 0.5
43 1 0.967642 0.238052 0.5
298 1 0.534555 0.276788 0.5
233 1 0.584488 0.294181 0.5
192 1 0.678916 0.280804 0.5
171 1 0.736791 0.271486 0.5
225 1 0.828424 0.286713 0.5
334 1 0.872086 0.267455 0.5
301 1 0.928222 0.267457 0.5
283 1 0.99204 0.294638 0.5
61 1 0.51179 0.319944 0.5
179 1 0.63382 0.300168 0.5
112 1 0.712679 0.327274 0.5
223 1 0.777352 0.306692 0.5
159 1 0.898099 0.310035 0.5
25 1 0.944615 0.316386 0.5
98 1 0.550502 0.347178 0.5
73 1 0.606961 0.348724 0.5
144 1 0.656733 0.343992 0.5
235 1 0.750204 0.360969 0.5
196 1 0.800738 0.350934 0.5
306 1 0.845988 0.335238 0.5
78 1 0.981482 0.352299 0.5
200 1 0.506194 0.368522 0.5
140 1 0.541206 0.39841 0.5
222 1 0.587377 0.396503 0.5
238 1 0.64759 0.392153 0.5
325 1 0.838939 0.388723 0.5
82 1 0.887936 0.37403 0.5
389 1 0.938116 0.370057 0.5
353 1 0.69343 0.406428 0.5
377 1 0.742013 0.411964 0.5
289 1 0.791276 0.407437 0.5
155 1 0.877379 0.420634 0.5
32 1 0.929208 0.419578 0.5
134 1 0.973744 0.403895 0.5
44 1 0.542294 0.449801 0.5
11 1 0.596387 0.445473 0.5
293 1 0.655188 0.441344 0.5
237 1 0.719522 0.462586 0.5
157 1 0.770967 0.456785 0.5
89 1 0.826989 0.443477 0.5
273 1 0.904605 0.463922 0.5
290 1 0.970962 0.451294 0.5
263 1 0.561481 0.495624 0.5
48 1 0.609803 0.494867 0.5
395 1 0.674821 0.486338 0.5
255 1 0.805834 0.491641 0.5
2 1 0.855871 0.482947 0.5
246 1 0.513923 0.504159 0.5
388 1 0.694121 0.530618 0.5
344 1 0.754324 0.505732 0.5
131 1 0.909118 0.518562 0.5
209 1 0.95697 0.500778 0.5
384 1 0.547616 0.554281 0.5
391 1 0.598243 0.549479 0.5
221 1 0.647393 0.539333 0.5
259 1 0.74253 0.557215 0.5
189 1 0.791266 0.541324 0.5
324 1 0.846422 0.538998 0.5
93 1 0.887077 0.564583 0.5
282 1 0.938703 0.560146 0.5
312 1 0.985122 0.539279 0.5
286 1 0.585354 0.595866 0.5
6 1 0.63744 0.586617 0.5
175 1 0.687725 0.581224 0.5
387 1 0.781289 0.587958 0.5
58 1 0.842937 0.585835 0.5
245 1 0.96972 0.596639 0.5
398 1 0.537134 0.607139 0.5
130 1 0.673453 0.627991 0.5
371 1 0.733865 0.603258 0.5
62 1 0.905386 0.620001 0.5
364 1 0.519023 0.656477 0.5
106 1 0.567336 0.645837 0.5
136 1 0.620843 0.638936 0.5
357 1 0.71415 0.658472 0.5
360 1 0.762771 0.64588 0.5
23 1 0.811623 0.641526 0.5
17 1 0.859748 0.634553 0.5
90 1 0.946795 0.642411 0.5
217 1 0.995562 0.664137 0.5
180 1 0.613644 0.691951 0.5
160 1 0.662767 0.677243 0.5
328 1 0.746007 0.695152 0.5
268 1 0.796374 0.687841 0.5
261 1 0.84794 0.680713 0.5
299 1 0.897936 0.66758 0.5
119 1 0.949177 0.69193 0.5
385 1 0.508415 0.701705 0.5
158 1 0.567504 0.706974 0.5
88 1 0.651269 0.725111 0.5
219 1 0.701457 0.718015 0.5
229 1 0.840715 0.731776 0.5
146 1 0.903209 0.719097 0.5
150 1 0.982669 0.727446 0.5
103 1 0.545698 0.749113 0.5
101 1 0.602204 0.739596 0.5
156 1 0.690211 0.764281 0.5
190 1 0.742476 0.745046 0.5
309 1 0.791521 0.738625 0.5
109 1 0.887128 0.766128 0.5
335 1 0.93698 0.752498 0.5
71 1 0.53179 0.798331 0.5
319 1 0.580657 0.784484 0.5
24 1 0.629565 0.777733 0.5
264 1 0.729956 0.793697 0.5
169 1 0.782133 0.786576 0.5
105 1 0.841615 0.783407 0.5
154 1 0.982962 0.773872 0.5
97 1 0.617753 0.824272 0.5
253 1 0.674767 0.809878 0.5
85 1 0.815313 0.825556 0.5
39 1 0.877274 0.816838 0.5
350 1 0.924255 0.800926 0.5
94 1 0.966973 0.819715 0.5
308 1 0.524607 0.852989 0.5
83 1 0.569663 0.838323 0.5
1 1 0.659014 0.858405 0.5
79 1 0.71485 0.839378 0.5
72 1 0.768074 0.834874 0.5
174 1 0.851604 0.858563 0.5
122 1 0.906674 0.855599 0.5
65 1 0.55895 0.886049 0.5
19 1 0.613642 0.875874 0.5
80 1 0.693904 0.895068 0.5
183 1 0.744024 0.880725 0.5
247 1 0.79691 0.871446 0.5
143 1 0.881354 0.899524 0.5
347 1 0.952897 0.867362 0.5
232 1 0.510087 0.905663 0.5
343 1 0.551285 0.932849 0.5
215 1 0.601115 0.927651 0.5
355 1 0.649808 0.909454 0.5
352 1 0.780054 0.915474 0.5
167 1 0.829993 0.906717 0.5
266 1 0.928587 0.923127 0.5
207 1 0.983401 0.906763 0.5
206 1 0.504434 0.957133 0.5
113 1 0.681318 0.955089 0.5
87 1 0.730824 0.934795 0.5
182 1 0.816408 0.951273 0.5
15 1 0.864882 0.945846 0.5
362 1 0.97536 0.958368 0.5
29 1 0.531578 0.998103 0.5
271 1 0.5801 0.976486 0.5
369 1 0.6322 0.967447 0.5
138 1 0.716485 0.987404 0.5
42 1 0.767652 0.967575 0.5
329 1 0.844933 0.990347 0.5
20 1 0.911876 0.9716 0.5
