#     Step Nr.          Time[fs]        Kin.[a.u.]          Temp[K]            Pot.[a.u.]        Cons Qty[a.u.]        UsedTime[s]
         0            0.000000         0.275037913       300.000000000     -1103.025644409     -1102.750606496         0.000000000
         1            0.500000         0.282398238       308.028338596     -1103.032472846     -1102.750825439       157.691201400
         2            1.000000         0.283541109       309.274935497     -1103.044132613     -1102.751104466        29.146489095
         3            1.500000         0.287370951       313.452368717     -1103.055940069     -1102.751379941        35.035353359
         4            2.000000         0.292240157       318.763497786     -1103.061643493     -1102.751430360        33.484480593
         5            2.500000         0.302366989       329.809428472     -1103.061552086     -1102.751339504        39.531515472
         6            3.000000         0.306057933       333.835357528     -1103.055206054     -1102.751111788        33.866675626
         7            3.500000         0.289888419       316.198319144     -1103.045679692     -1102.750822356        30.234558806
         8            4.000000         0.281286268       306.815447915     -1103.038713356     -1102.750566746        34.742509425
         9            4.500000         0.289341887       315.602184711     -1103.038337677     -1102.750425194        27.175245266
        10            5.000000         0.290024520       316.346772910     -1103.044485178     -1102.750354419        25.989926822
        11            5.500000         0.318578875       347.492684568     -1103.058699408     -1102.750432165        23.654062659
        12            6.000000         0.326509886       356.143503397     -1103.075574489     -1102.750648957        26.303376563
        13            6.500000         0.334557593       364.921610058     -1103.094487051     -1102.750860748        23.373728070
        14            7.000000         0.344051419       375.277083791     -1103.117028764     -1102.751087713        25.555702221
        15            7.500000         0.373593919       407.500823164     -1103.135499262     -1102.751449021        12.198105372
        16            8.000000         0.396817661       432.832321742     -1103.149712273     -1102.752004648        23.214166794
        17            8.500000         0.368990807       402.479938023     -1103.151322147     -1102.752711947        21.594219785
        18            9.000000         0.340548583       371.456334564     -1103.134160447     -1102.752645629        10.856334805
        19            9.500000         0.311108375       339.344170983     -1103.099442700     -1102.750593728        19.843962301
        20           10.000000         0.276737652       301.854005299     -1103.075074210     -1102.748299795        22.949715272
        21           10.500000         0.283637103       309.379642312     -1103.086069436     -1102.749876630        24.210278474
        22           11.000000         0.312635295       341.009672574     -1103.115745497     -1102.751961159        22.889034316
        23           11.500000         0.320994955       350.128044390     -1103.141223568     -1102.752358953        22.690169819
        24           12.000000         0.323576645       352.944045414     -1103.152863140     -1102.751978375        22.258725882
        25           12.500000         0.317891563       346.742992978     -1103.155272421     -1102.751790590        14.340583228
        26           13.000000         0.305669434       333.411599352     -1103.153243819     -1102.751664604        13.120660316
        27           13.500000         0.318461703       347.364877770     -1103.149555139     -1102.751537136        10.352143321
        28           14.000000         0.308406283       336.396841085     -1103.145490926     -1102.751407476        11.422155391
        29           14.500000         0.298554102       325.650488818     -1103.142935218     -1102.751351627        11.430716310
        30           15.000000         0.304215251       331.825436648     -1103.140528093     -1102.751286449        12.693379473
        31           15.500000         0.319928107       348.964370556     -1103.140380683     -1102.751234068        11.058414396
        32           16.000000         0.316295307       345.001862238     -1103.140461822     -1102.751163044        10.292477500
        33           16.500000         0.316493408       345.217942717     -1103.144715941     -1102.751090137        10.612980004
        34           17.000000         0.323666383       353.041928125     -1103.152933186     -1102.751064096        10.383201037
        35           17.500000         0.341682105       372.692733327     -1103.165706953     -1102.751226869         9.338062339
        36           18.000000         0.339013670       369.782114993     -1103.180089330     -1102.751547604         9.419236649
        37           18.500000         0.360848588       393.598742431     -1103.190483304     -1102.751855695         9.493413318
        38           19.000000         0.345910663       377.305070082     -1103.192314374     -1102.752025926         9.319237862
        39           19.500000         0.347533940       379.075674013     -1103.188614099     -1102.751972545         9.455820106
        40           20.000000         0.330542706       360.542337163     -1103.179944749     -1102.751720419        11.858012613
        41           20.500000         0.326669141       356.317211975     -1103.171963055     -1102.751434901         9.067486580
        42           21.000000         0.323262549       352.601442279     -1103.170835826     -1102.751414341         9.022134606
        43           21.500000         0.324747796       354.221488188     -1103.173046715     -1102.751497372         9.473433290
        44           22.000000         0.334536514       364.898617771     -1103.177311033     -1102.751677439         9.399900109
        45           22.500000         0.317705114       346.539621934     -1103.181229754     -1102.751867479         9.402793784
        46           23.000000         0.305752193       333.501868854     -1103.181373051     -1102.751924561         9.370331984
        47           23.500000         0.303371011       330.904574271     -1103.183497232     -1102.751984963         9.097968124
        48           24.000000         0.308948994       336.988807090     -1103.185850882     -1102.752027076         9.288028747
        49           24.500000         0.299588611       326.778888685     -1103.187844706     -1102.752091115         9.353583533
        50           25.000000         0.297767110       324.792069665     -1103.188102844     -1102.752168351        11.936472632
        51           25.500000         0.279775289       305.167334189     -1103.186685782     -1102.752180489         9.418026872
        52           26.000000         0.282494662       308.133514004     -1103.186553146     -1102.752137527         9.461540285
        53           26.500000         0.285527385       311.441483729     -1103.185871363     -1102.752033670         9.256935809
        54           27.000000         0.283936467       309.706175877     -1103.187408114     -1102.751966835         9.205346934
        55           27.500000         0.275235354       300.215360795     -1103.189493783     -1102.751944566         9.271460775
        56           28.000000         0.278014555       303.246799169     -1103.196322181     -1102.752108769         9.158416022
        57           28.500000         0.296780186       323.715574363     -1103.206553449     -1102.752379694         9.399740390
        58           29.000000         0.300242353       327.491963418     -1103.211184885     -1102.752460179         9.384422421
        59           29.500000         0.304156198       331.761023436     -1103.214561557     -1102.752448773         9.535587516
        60           30.000000         0.304652894       332.302799225     -1103.214909559     -1102.752373638        12.126621313
        61           30.500000         0.298441516       325.527684423     -1103.215174418     -1102.752343861         9.315406278
        62           31.000000         0.299453452       326.631462461     -1103.213525819     -1102.752320894         9.264481623
        63           31.500000         0.304890454       332.561920116     -1103.213459075     -1102.752373489         9.349179897
        64           32.000000         0.320751905       349.862935673     -1103.210600796     -1102.752304124         9.264906920
        65           32.500000         0.315354926       343.976134255     -1103.206279951     -1102.752185446         9.479966000
        66           33.000000         0.307435481       335.337930527     -1103.198782637     -1102.752002620         9.191011276
        67           33.500000         0.297769809       324.795014257     -1103.193370099     -1102.751887490         9.360894319
        68           34.000000         0.306826519       334.673699063     -1103.191982578     -1102.751894590         9.532129213
        69           34.500000         0.330579555       360.582531048     -1103.197974858     -1102.752047722         8.439333528
        70           35.000000         0.332935757       363.152578662     -1103.202978345     -1102.752165839        12.840254158
        71           35.500000         0.327641149       357.377438372     -1103.204566104     -1102.752160870         8.588935826
        72           36.000000         0.313161472       341.583604540     -1103.205546584     -1102.752128747         9.388889223
        73           36.500000         0.320530221       349.621131755     -1103.205251497     -1102.752111366         9.409554452
        74           37.000000         0.306478056       334.293610742     -1103.206028692     -1102.752111819         9.407915667
        75           37.500000         0.327774888       357.523315046     -1103.209786670     -1102.752183956         9.240150511
        76           38.000000         0.302812864       330.295770502     -1103.212662775     -1102.752257803         9.377172776
        77           38.500000         0.299405308       326.578949049     -1103.215395842     -1102.752321381         9.382541560
        78           39.000000         0.304305760       331.924159861     -1103.218866772     -1102.752401681         9.728428673
        79           39.500000         0.314234048       342.753526246     -1103.217678116     -1102.752357842         8.625412036
        80           40.000000         0.301140897       328.472057370     -1103.212880395     -1102.752202099        10.821025088
        81           40.500000         0.321535839       350.718018648     -1103.208147256     -1102.752055037         9.257189240
        82           41.000000         0.291719919       318.196043562     -1103.204353724     -1102.751970898         8.367843140
        83           41.500000         0.298587638       325.687068639     -1103.204903683     -1102.752020088         8.568330985
        84           42.000000         0.326579100       356.218999523     -1103.206800051     -1102.752098395         9.373164453
        85           42.500000         0.331683317       361.786468635     -1103.207635415     -1102.752152254         9.571654227
        86           43.000000         0.313608627       342.071342762     -1103.206653718     -1102.752154182         9.376856025
        87           43.500000         0.308415405       336.406790480     -1103.206798573     -1102.752181647         8.531222362
        88           44.000000         0.314916951       343.498408300     -1103.206715187     -1102.752199073         9.300581191
        89           44.500000         0.308342222       336.326965226     -1103.205333292     -1102.752184383         9.326368012
        90           45.000000         0.287597726       313.699726075     -1103.201469032     -1102.752112631        12.862053465
        91           45.500000         0.286659861       312.676741819     -1103.197447626     -1102.752036281         9.697681826
        92           46.000000         0.275335060       300.324115915     -1103.195878203     -1102.751976660         8.409061387
        93           46.500000         0.281312859       306.844452078     -1103.195699707     -1102.751964306         9.422391709
        94           47.000000         0.276835420       301.960647429     -1103.198438856     -1102.751988039         9.136606321
        95           47.500000         0.278380102       303.645521914     -1103.202277376     -1102.752048921         8.441623818
        96           48.000000         0.288654388       314.852289071     -1103.200987405     -1102.751983722         8.463602062
        97           48.500000         0.297945191       324.986313285     -1103.198461807     -1102.751859131         9.345057052
        98           49.000000         0.290783320       317.174440578     -1103.195611420     -1102.751767153         8.459979389
        99           49.500000         0.293589238       320.235020258     -1103.195918161     -1102.751804447         9.435959857
       100           50.000000         0.284701991       310.541178287     -1103.199135185     -1102.751918161        13.122822352
       101           50.500000         0.291352835       317.795643556     -1103.202675205     -1102.752001533         8.607177701
       102           51.000000         0.294419836       321.141001681     -1103.205678659     -1102.752048292         8.513723217
       103           51.500000         0.297555621       324.561386603     -1103.204302785     -1102.751999871         8.339769710
       104           52.000000         0.296941765       323.891818099     -1103.199790165     -1102.751871872         8.357211050
       105           52.500000         0.286165805       312.137846026     -1103.195688025     -1102.751749604         8.328719426
       106           53.000000         0.278476937       303.751145726     -1103.197014893     -1102.751812428         8.716072317
       107           53.500000         0.284751673       310.595368574     -1103.201686557     -1102.751979788         8.412951645
       108           54.000000         0.284976575       310.840682910     -1103.207446743     -1102.752169463         8.490499653
       109           54.500000         0.294938485       321.706723235     -1103.213769832     -1102.752296694         8.492127094
       110           55.000000         0.287754608       313.870846311     -1103.214833346     -1102.752300518        10.981377050
       111           55.500000         0.286553399       312.560617086     -1103.212720194     -1102.752234201         8.492475927
       112           56.000000         0.299295618       326.459303344     -1103.207537470     -1102.752078449         8.519593794
       113           56.500000         0.287471308       313.561834179     -1103.203434786     -1102.751954881         8.387882803
       114           57.000000         0.294254158       320.960286801     -1103.198373457     -1102.751853951         9.684107076
       115           57.500000         0.296041682       322.910044061     -1103.197276906     -1102.751844034         9.401307445
       116           58.000000         0.290208522       316.547473996     -1103.196480013     -1102.751860596         9.433850300
       117           58.500000         0.285890040       311.837052241     -1103.199356912     -1102.751958930         8.592259463
       118           59.000000         0.293549161       320.191305308     -1103.201734960     -1102.752063968         8.665490929
       119           59.500000         0.307321177       335.213252364     -1103.201333481     -1102.752114432         8.469945081
       120           60.000000         0.304935693       332.611264915     -1103.199468213     -1102.752123774        11.951949567
       121           60.500000         0.303311817       330.840007462     -1103.197123036     -1102.752098309         8.197174676
       122           61.000000         0.308250284       336.226684008     -1103.196376756     -1102.752087870         8.424275324
       123           61.500000         0.304082710       331.680865615     -1103.195054464     -1102.752083295         8.103521142
       124           62.000000         0.303221029       330.740979430     -1103.193997797     -1102.752105446         8.562465392
       125           62.500000         0.303679655       331.241230234     -1103.194405134     -1102.752161352         8.711230662
       126           63.000000         0.301063576       328.387719458     -1103.194155759     -1102.752179747         8.628400344
       127           63.500000         0.302143535       329.565693851     -1103.193377727     -1102.752173036         8.535199724
       128           64.000000         0.284439767       310.255154240     -1103.189017182     -1102.752059089         8.412233636
       129           64.500000         0.276357530       301.439384220     -1103.184516665     -1102.751967121         8.545157760
       130           65.000000         0.274036332       298.907517389     -1103.182932714     -1102.751933808        11.783328902
       131           65.500000         0.275550477       300.559084557     -1103.183956554     -1102.751956644         8.544970095
       132           66.000000         0.281873075       307.455513199     -1103.189107649     -1102.752086073         8.434973128
       133           66.500000         0.291470628       317.924127826     -1103.192408179     -1102.752194833         8.356914643
       134           67.000000         0.295069379       321.849496233     -1103.194388592     -1102.752241441         8.380713370
       135           67.500000         0.305406178       333.124449751     -1103.194866469     -1102.752190803         8.359860722
       136           68.000000         0.308513330       336.513603715     -1103.193427737     -1102.752047885         8.465804726
       137           68.500000         0.299082405       326.226739229     -1103.191630082     -1102.751954161         8.502459228
       138           69.000000         0.279352444       304.706112523     -1103.192302892     -1102.752036051         8.473161619
       139           69.500000         0.279066159       304.393845350     -1103.193490251     -1102.752145206         8.448335100
       140           70.000000         0.291040456       317.454913725     -1103.196040907     -1102.752201346        11.434252307
       141           70.500000         0.275577297       300.588337763     -1103.194881426     -1102.752148367         8.699987099
       142           71.000000         0.289018076       315.248985237     -1103.190801658     -1102.752044553         8.735942800
       143           71.500000         0.268405707       292.765863702     -1103.188183306     -1102.752001557         8.317040130
       144           72.000000         0.289440938       315.710225356     -1103.186563015     -1102.751964910         8.274282284
       145           72.500000         0.294266778       320.974052570     -1103.186765493     -1102.751982026         8.352859423
       146           73.000000         0.287642726       313.748810166     -1103.189250295     -1102.752103694         8.468324322
       147           73.500000         0.286195012       312.169703863     -1103.192517717     -1102.752269536         8.430890709
       148           74.000000         0.295938056       322.797013918     -1103.192043178     -1102.752307010         8.472724292
       149           74.500000         0.301235980       328.575769966     -1103.187294173     -1102.752180621         8.391045082
       150           75.000000         0.301666655       329.045532866     -1103.179712228     -1102.751933240        10.961505421
       151           75.500000         0.292178743       318.696510707     -1103.173907812     -1102.751763309         9.683544729
       152           76.000000         0.285996729       311.953424369     -1103.169822379     -1102.751735033         8.459754977
       153           76.500000         0.283910184       309.677507650     -1103.167975016     -1102.751766699         8.061660308
       154           77.000000         0.259744401       283.318469146     -1103.166178042     -1102.751761572         8.423657056
       155           77.500000         0.259107054       282.623277701     -1103.167120123     -1102.751749028         8.416151188
       156           78.000000         0.251181890       273.978835730     -1103.169148395     -1102.751756489         8.464516778
       157           78.500000         0.261286266       285.000271645     -1103.175190019     -1102.751868972         8.516814250
       158           79.000000         0.280399901       305.848635920     -1103.182158756     -1102.752044860         8.544276685
       159           79.500000         0.295238321       322.033771302     -1103.185700852     -1102.752145126         8.630629309
       160           80.000000         0.292472257       319.016663412     -1103.186979057     -1102.752188451        11.467017468
       161           80.500000         0.278936300       304.252199705     -1103.183160153     -1102.752088077         8.583396196
       162           81.000000         0.276414893       301.501952988     -1103.179049017     -1102.751952323         9.128556408
       163           81.500000         0.282039210       307.636726379     -1103.176041279     -1102.751836887         8.259200767
       164           82.000000         0.276086406       301.143653046     -1103.177037621     -1102.751845577         8.454901062
       165           82.500000         0.264948970       288.995397486     -1103.178303401     -1102.751879182         8.364077024
       166           83.000000         0.267324433       291.586455232     -1103.183201935     -1102.752036988         8.358936712
       167           83.500000         0.280327413       305.769568334     -1103.190712532     -1102.752252817         9.455256362
       168           84.000000         0.287174799       313.238414970     -1103.193962645     -1102.752355669         8.504983395
       169           84.500000         0.281605266       307.163397817     -1103.193424536     -1102.752377218         8.316460237
       170           85.000000         0.286185878       312.159740841     -1103.189970549     -1102.752342612        11.840253375
       171           85.500000         0.263252853       287.145343725     -1103.183725978     -1102.752243238         8.287883975
       172           86.000000         0.258719102       282.200114965     -1103.178716325     -1102.752181832         8.291530218
       173           86.500000         0.266176892       290.334764756     -1103.176460693     -1102.752175586         9.185518309
       174           87.000000         0.262656722       286.495108937     -1103.173769376     -1102.752162333         8.309013776
       175           87.500000         0.249982683       272.670789776     -1103.173491955     -1102.752196569         8.411905013
       176           88.000000         0.255582258       278.778575140     -1103.172841943     -1102.752200449         8.141274292
       177           88.500000         0.255960308       279.190936045     -1103.172161303     -1102.752137681         8.245852791
       178           89.000000         0.266260600       290.426069593     -1103.173336357     -1102.752098183         9.644154325
       179           89.500000         0.278595468       303.880434578     -1103.177505336     -1102.752135760         8.411514986
       180           90.000000         0.293733625       320.392510765     -1103.184952507     -1102.752267463        12.962959908
       181           90.500000         0.301251537       328.592738807     -1103.189420749     -1102.752353064         8.524496611
       182           91.000000         0.292584662       319.139269437     -1103.192697448     -1102.752362759         8.300352342
       183           91.500000         0.306515584       334.334544264     -1103.191148865     -1102.752220816         8.472165909
       184           92.000000         0.292877554       319.458744247     -1103.188248714     -1102.752046865         8.489078257
       185           92.500000         0.276965759       302.102815645     -1103.187021254     -1102.751980353         8.745132681
       186           93.000000         0.292486131       319.031796718     -1103.188537034     -1102.752008307         8.614501193
       187           93.500000         0.283852008       309.614051679     -1103.192496996     -1102.752075892         8.510471411
       188           94.000000         0.299182230       326.335625002     -1103.198337244     -1102.752165104         8.460764661
       189           94.500000         0.297687683       324.705434860     -1103.202680889     -1102.752230083         8.510805961
       190           95.000000         0.288511693       314.696643922     -1103.204365376     -1102.752231054        11.249224707
       191           95.500000         0.279012325       304.335124479     -1103.202453202     -1102.752155524         8.689348374
       192           96.000000         0.269524749       293.986468499     -1103.199325981     -1102.752072956        16.725997496
       193           96.500000         0.270445478       294.990762395     -1103.197782898     -1102.752041229        19.801678088
       194           97.000000         0.277233943       302.395339191     -1103.201415783     -1102.752109512         9.312003441
       195           97.500000         0.293398213       320.026657583     -1103.204919178     -1102.752132003         9.378968116
       196           98.000000         0.297460292       324.457405764     -1103.207614133     -1102.752126211         9.068155035
       197           98.500000         0.285199326       311.083650803     -1103.207580102     -1102.752094939         8.549899258
       198           99.000000         0.278197300       303.446129206     -1103.207243326     -1102.752088942        17.745038852
       199           99.500000         0.269293309       293.734023417     -1103.206259572     -1102.752081143         8.238540046
       200          100.000000         0.276950308       302.085961843     -1103.204694669     -1102.752039450        22.747248627
       201          100.500000         0.271012994       295.609785328     -1103.203844781     -1102.752024399        21.886613235
       202          101.000000         0.278867601       304.177265617     -1103.205991367     -1102.752081176        19.472049095
       203          101.500000         0.289684726       315.976139329     -1103.206845718     -1102.752038507        21.266184997
       204          102.000000         0.298337871       325.414633071     -1103.208520684     -1102.751968781        20.187439285
       205          102.500000         0.305779430       333.531578510     -1103.213073952     -1102.751977401        22.882552478
       206          103.000000         0.305261533       332.966677388     -1103.218736442     -1102.752077643        23.740343709
       207          103.500000         0.301323709       328.671461310     -1103.223851373     -1102.752178783        17.238542136
       208          104.000000         0.306505563       334.323613693     -1103.226341550     -1102.752248455        22.292581741
       209          104.500000         0.301131565       328.461878931     -1103.226630033     -1102.752264391        16.402265772
       210          105.000000         0.291494529       317.950197628     -1103.224509855     -1102.752268605        10.980406135
       211          105.500000         0.293489859       320.126621841     -1103.217876570     -1102.752114213         8.406878088
       212          106.000000         0.286398374       312.391522544     -1103.213272452     -1102.751994728         8.335452270
       213          106.500000         0.281712092       307.279919179     -1103.209579829     -1102.751915538         8.371085428
       214          107.000000         0.288516132       314.701485628     -1103.207173933     -1102.751931309         9.032927442
       215          107.500000         0.277062522       302.208359947     -1103.207012058     -1102.752002799         8.695957389
       216          108.000000         0.283647751       309.391255936     -1103.207979896     -1102.752064523         8.444737852
       217          108.500000         0.295195384       321.986937883     -1103.209651387     -1102.752091044         8.503975410
       218          109.000000         0.286651415       312.667528774     -1103.211037227     -1102.752151776         8.492111336
       219          109.500000         0.286993594       313.040763203     -1103.211244946     -1102.752212715         8.685120892
       220          110.000000         0.301483163       328.845387656     -1103.209568569     -1102.752189575        10.965756934
       221          110.500000         0.290073122       316.399785990     -1103.204234982     -1102.752057460         8.307858199
       222          111.000000         0.261494425       285.227323354     -1103.196426175     -1102.751843520         8.388243057
       223          111.500000         0.265494581       289.590528192     -1103.191543353     -1102.751691218         8.234303884
       224          112.000000         0.266301420       290.470594918     -1103.192802145     -1102.751756244         8.366489545
       225          112.500000         0.287334016       313.412081799     -1103.198305544     -1102.751963508         8.605926868
       226          113.000000         0.287829313       313.952331039     -1103.201793676     -1102.752111426         8.414798226
       227          113.500000         0.303396905       330.932818062     -1103.205254706     -1102.752198960         8.560985863