ITEM: TIMESTEP
100000
ITEM: NUMBER OF ATOMS
2048
ITEM: BOX BOUNDS pp pp pp
0.0000000000000000e+00 1.2699208415745595e+01
0.0000000000000000e+00 1.2699208415745595e+01
0.0000000000000000e+00 1.2699208415745595e+01
ITEM: ATOMS id type xs ys zs
55 1 0.745419 0.318798 0.453069
525 1 0.575003 0.0629646 0.469667
948 1 0.130666 0.232609 0.439738
1136 1 0.631021 0.186861 0.405516
1633 1 0.677206 0.420994 0.16342
1204 1 0.410193 0.440541 0.108492
1623 1 0.443958 0.366811 0.0796922
1348 1 0.164058 0.00144044 0.22091
673 1 0.688392 0.236624 0.479436
1171 1 0.745486 0.383003 0.134327
455 1 0.321769 0.280603 0.497463
374 1 0.460548 0.0577164 0.0270808
1495 1 0.312623 0.318789 0.203636
1985 1 0.916725 0.290553 0.480256
326 1 0.610038 0.115593 0.40096
1472 1 0.98521 0.116556 0.166809
852 1 0.987723 0.446459 0.331549
1009 1 0.0601823 0.364649 0.0409694
291 1 0.461239 0.109684 0.0939912
1481 1 0.729241 0.148209 0.482544
863 1 0.0273126 0.048516 0.329218
1883 1 0.977605 0.318922 0.0879796
1558 1 0.590312 0.430016 0.244804
1966 1 0.563074 0.167419 0.479095
1407 1 0.625189 0.429084 0.438898
451 1 0.874686 0.39269 0.282803
1872 1 0.783078 0.0137384 0.307266
1382 1 0.248969 0.216701 0.0730517
623 1 0.979332 0.211397 0.371758
1518 1 0.0695431 0.0302293 0.4157
1865 1 0.912881 0.457505 0.321267
563 1 0.448857 0.108928 0.168411
1245 1 0.517656 0.0971867 0.146853
710 1 0.656257 0.220406 0.0751045
1885 1 0.407987 0.0203784 0.306253
1332 1 0.070967 0.263241 0.0141873
881 1 0.999614 0.407491 0.0594225
1744 1 0.952236 0.0478999 0.188859
27 1 0.733734 0.4473 0.097472
142 1 0.460231 0.311313 0.0286232
807 1 0.543168 0.271135 0.0720975
301 1 0.844265 0.218599 0.0212199
559 1 0.903893 0.317297 0.125919
427 1 0.623978 0.388179 0.0837611
1622 1 0.0640594 0.426178 0.0966892
1043 1 0.305532 0.115719 0.100215
1826 1 0.656915 0.355271 0.436068
2019 1 0.45365 0.262993 0.0923538
1945 1 0.673287 0.001004 0.36707
80 1 0.813473 0.455707 0.0928692
63 1 0.278614 0.245038 0.184607
1644 1 0.495147 0.248632 0.362942
638 1 0.287743 0.269759 0.0360785
1468 1 0.446854 0.217159 0.151333
1941 1 0.554174 0.45578 0.019023
278 1 0.793374 0.389535 0.0525274
412 1 0.883681 0.00036129 0.328806
1824 1 0.860067 0.224705 0.475587
1745 1 0.848414 0.112615 0.478571
936 1 0.14017 0.346055 0.0578501
1711 1 0.831096 0.353323 0.34258
54 1 0.385176 0.385237 0.493668
1904 1 0.789631 0.00555148 0.222259
1807 1 0.0137206 0.429805 0.448876
167 1 0.793018 0.0714835 0.0834257
309 1 0.531385 0.466562 0.383755
1392 1 0.520662 0.116659 0.051598
883 1 0.931476 0.0961892 0.105062
1588 1 0.142897 0.0135602 0.0602496
729 1 0.60327 0.446629 0.359596
491 1 0.477302 0.42068 0.415843
1686 1 0.383909 0.474243 0.327335
120 1 0.836162 0.46827 0.0222876
1526 1 0.720164 0.389794 0.446196
446 1 0.61289 0.215686 0.20411
1552 1 0.642682 0.371819 0.218863
935 1 0.845166 0.44533 0.457181
1200 1 0.33423 0.203707 0.161275
1850 1 0.724009 0.0474555 0.0978965
1688 1 0.910852 0.151437 0.0420936
375 1 0.0151908 0.378881 0.297491
939 1 0.13119 0.228858 0.136319
28 1 0.86527 0.0258418 0.0498882
1054 1 0.576969 0.0859204 0.3368
1321 1 0.662023 0.160356 0.171999
173 1 0.043735 0.484302 0.401066
715 1 0.191606 0.473997 0.246791
2026 1 0.0517649 0.176044 0.0328493
1628 1 0.404097 0.153375 0.0126898
495 1 0.155255 0.0862821 0.107474
1267 1 0.383671 0.124519 0.109058
419 1 0.678904 0.3435 0.148388
1965 1 0.743755 0.273516 0.140709
1077 1 0.0320511 0.238649 0.087724
1902 1 0.650857 0.159839 0.494433
400 1 0.434813 0.32262 0.161994
675 1 0.642928 0.299763 0.103406
619 1 0.49702 0.149691 0.213441
1631 1 0.237107 0.00940614 0.24528
1786 1 0.289531 0.288902 0.111082
688 1 0.118005 0.429825 0.0306364
1974 1 0.582911 0.346056 0.134733
1770 1 0.992117 0.0597641 0.437263
1368 1 0.254389 0.00728998 0.0102843
1118 1 0.199734 0.37922 0.120269
1216 1 0.494432 0.449115 0.106158
285 1 0.5757 0.326369 0.274138
1579 1 0.970639 0.493025 0.485869
296 1 0.717255 0.368279 0.0494745
2043 1 0.775368 0.0119257 0.04036
598 1 0.380595 0.0468587 0.373159
450 1 0.10001 0.409474 0.466917
1839 1 0.36754 0.384288 0.0639891
1924 1 0.448513 0.0299601 0.458943
1537 1 0.176284 0.394352 0.204811
1454 1 0.00775567 0.117714 0.393888
1528 1 0.658099 0.180248 0.323685
136 1 0.841486 0.388173 0.115862
926 1 0.304814 0.0475928 0.47842
1471 1 0.601676 0.268805 0.00786485
902 1 0.328783 0.217316 0.0836229
900 1 0.281605 0.0186119 0.331922
999 1 0.456611 0.0324417 0.376936
37 1 0.995181 0.274133 0.0296949
1612 1 0.199621 0.472752 0.358947
1635 1 0.160582 0.493193 0.0249731
1182 1 0.860528 0.0709624 0.363118
916 1 0.423639 0.0440483 0.1036
329 1 0.0402529 0.48815 0.137005
702 1 0.593149 0.103726 0.0304884
972 1 0.785963 0.0641326 0.175731
1811 1 0.853106 0.0577751 0.127219
1657 1 0.0422575 0.0225271 0.0587145
1577 1 0.248215 0.172454 0.137561
2025 1 0.129885 0.0291856 0.481724
1695 1 0.284519 0.498677 0.439733
503 1 0.590578 0.0717184 0.185457
1133 1 0.960806 0.210934 0.0593242
311 1 0.0959534 0.0985305 0.0560673
1272 1 0.334295 0.152287 0.0397531
91 1 0.213907 0.0555874 0.0601323
1142 1 0.239933 0.0930177 0.134191
1452 1 0.22724 0.0893829 0.224773
2037 1 0.667781 0.0897966 0.139057
918 1 0.652216 0.164069 0.246437
983 1 0.373182 0.0178994 0.454549
330 1 0.00421226 0.155612 0.235389
707 1 0.134184 0.257982 0.065044
1925 1 0.161266 0.306267 0.12635
1096 1 0.208187 0.236616 0.147874
318 1 0.318828 0.234726 0.312235
933 1 0.360408 0.273799 0.155762
241 1 0.509837 0.0703657 0.228663
1838 1 0.50532 0.184576 0.118955
1172 1 0.668101 0.0990976 0.023648
1886 1 -0.00174551 0.296991 0.162125
1876 1 0.020982 0.366557 0.129645
2013 1 0.49912 0.326687 0.112365
1609 1 0.335011 0.234579 0.233668
1225 1 0.589245 0.366924 0.00261904
14 1 0.824796 0.486519 0.174026
172 1 0.68897 0.267021 0.210451
803 1 0.858939 0.280932 0.0724779
1567 1 0.106053 0.365025 0.152484
1523 1 0.364265 0.378622 0.140605
870 1 0.296064 0.383305 0.291515
1273 1 0.38849 0.304487 0.233551
1318 1 0.810464 0.336352 0.171095
1717 1 0.837837 0.210464 0.100376
1712 1 0.937795 0.449858 0.0476857
13 1 0.769199 0.225058 0.449977
1894 1 0.416771 0.413708 0.18592
1970 1 0.774024 0.461421 0.481581
955 1 0.526964 0.329843 0.187349
1586 1 0.0727353 0.429423 0.177095
617 1 0.44122 0.48449 0.164686
180 1 0.315602 0.380624 0.424608
1337 1 0.877642 0.408691 0.0289468
227 1 0.263355 0.0021916 0.164172
876 1 0.649944 0.329335 0.0302044
1176 1 0.179667 0.302303 0.411791
2039 1 0.577726 0.4968 0.44622
159 1 0.803139 0.136022 0.0262354
215 1 0.771711 0.202888 0.0273682
974 1 0.205845 0.153883 0.477226
119 1 0.863917 0.136279 0.112011
183 1 0.459412 0.479324 0.352908
233 1 0.00839318 0.0975467 0.0571278
264 1 0.389926 0.0846695 0.0400429
1884 1 0.523425 0.132721 0.290499
1276 1 0.37093 0.0921356 0.310555
268 1 0.38948 0.44496 0.410019
1379 1 0.868612 0.0530794 0.235281
953 1 0.100191 0.158489 0.103871
1957 1 0.242376 0.0761304 0.296204
1130 1 0.353594 0.139757 0.192819
892 1 0.44023 0.182084 0.283619
1285 1 0.655255 0.093573 0.220446
1897 1 0.738913 0.13158 0.202
1023 1 0.901698 0.193901 0.189073
64 1 0.926546 0.168766 0.284626
912 1 0.233349 0.162744 0.376051
1227 1 0.70159 0.213296 0.14117
123 1 0.0961343 0.289684 0.183915
355 1 0.664027 0.328708 0.278631
2000 1 0.720066 0.199351 0.238864
335 1 0.796174 0.190734 0.183214
541 1 0.950838 0.395586 0.254102
1960 1 0.275366 0.153548 0.205643
108 1 0.19159 0.20805 0.222966
1820 1 0.36276 0.165488 0.262382
260 1 0.405285 0.204844 0.215554
1384 1 0.559973 0.271822 0.225091
1914 1 0.697281 0.151262 0.0912253
164 1 0.0618756 0.203051 0.153094
574 1 0.0643844 0.305105 0.112894
692 1 0.323575 0.436358 0.473999
175 1 0.264589 0.439157 0.227562
860 1 0.535377 0.0499307 0.0130875
1198 1 0.238175 0.265841 0.258846
787 1 0.566529 0.378173 0.343556
79 1 0.890923 0.248866 0.26119
1910 1 0.976265 0.43143 0.191818
147 1 0.350478 0.37697 0.239162
1344 1 0.451575 0.351852 0.230798
313 1 0.464632 0.25969 0.232495
1279 1 0.62927 0.39519 0.305396
1979 1 0.830252 0.259682 0.165105
242 1 0.737423 0.464966 0.274999
1397 1 0.947063 0.361384 0.16898
1601 1 0.188162 0.488925 0.0924879
53 1 0.669461 0.391133 0.368004
284 1 0.434492 0.187781 0.0842578
1629 1 0.676679 0.467008 0.332624
1559 1 0.10919 0.31075 0.442099
361 1 0.0937854 0.159017 0.240668
706 1 0.907764 0.361929 0.447172
1078 1 0.992302 0.132837 0.320086
78 1 0.807676 0.137058 0.408339
10 1 0.371757 0.484226 0.193406
25 1 0.783967 0.088023 0.333523
47 1 0.0649634 0.123869 0.344198
643 1 0.190978 0.143157 0.18188
1300 1 0.101444 0.490805 0.0705294
510 1 0.309335 0.0855634 0.247322
1762 1 0.35069 0.0108194 0.241127
1842 1 0.652181 0.10413 0.342645
1247 1 0.926185 0.286203 0.384254
666 1 0.968762 0.077687 0.257187
589 1 -0.000257362 0.162818 0.100834
1386 1 0.0349205 0.249233 0.213772
960 1 0.589979 0.100396 0.262354
904 1 0.0352525 0.00436316 0.482296
73 1 0.184537 0.171724 0.0849544
542 1 0.0372896 0.35118 0.449383
1155 1 0.276042 0.157117 0.282692
1675 1 0.572711 0.151358 0.181089
271 1 0.767546 0.178331 0.107159
1726 1 0.780752 0.257952 0.226578
1269 1 0.909349 0.235997 0.127061
336 1 0.836901 0.129911 0.190288
668 1 0.0968622 0.359758 0.278039
1287 1 0.117973 0.129014 0.165739
50 1 0.304974 0.223344 0.444609
468 1 0.163222 0.183684 0.325964
570 1 0.718871 0.276776 0.0621558
746 1 0.78874 0.207762 0.286544
87 1 0.0249267 0.35373 0.216706
1858 1 0.183765 0.135219 0.269082
509 1 0.467988 0.0660499 0.304482
1860 1 0.562047 0.258122 0.144043
1157 1 0.889029 0.432121 0.210956
567 1 0.147889 0.46209 0.178738
113 1 0.723355 0.0404305 0.210148
517 1 0.182464 0.364286 0.27846
217 1 0.54464 0.436969 0.301324
620 1 0.782933 0.270254 0.331203
417 1 0.936124 0.386302 0.0952969
1319 1 0.241403 0.323193 0.167736
1932 1 0.64383 0.280943 0.435635
202 1 0.675074 0.428431 0.245284
1833 1 0.927688 0.278479 0.189563
1441 1 0.958908 0.395268 0.494954
396 1 0.34823 0.300308 0.0656982
82 1 0.74328 0.110408 0.129887
1047 1 0.681104 0.00445096 0.275829
132 1 0.662569 0.459382 0.0720954
1571 1 0.271175 0.473573 0.309965
442 1 0.480414 0.388901 0.156589
1990 1 0.502373 0.449116 0.20607
1768 1 0.102594 0.0619722 0.354043
907 1 0.171226 0.0895463 0.445018
477 1 0.399605 0.437823 0.255423
1093 1 0.718376 0.0730421 0.296313
244 1 0.527437 0.030856 0.417992
712 1 0.742304 0.0894904 0.0307584
445 1 0.245264 0.0891129 0.389622
862 1 0.308709 0.0516172 0.399055
303 1 0.56404 0.202126 0.0432347
350 1 0.802282 0.433303 0.394234
1666 1 0.509751 0.0917004 0.364001
1219 1 0.619244 0.14674 0.0996907
423 1 0.156026 0.0858557 0.006254
359 1 0.0751567 0.0469652 0.268171
2041 1 0.146866 0.0679353 0.251584
1866 1 0.154641 0.0175769 0.31904
1110 1 0.44632 0.0404486 0.188414
127 1 0.272214 0.154228 0.43982
1094 1 0.607618 0.0366946 0.390119
1825 1 0.666106 0.00733926 0.446067
1818 1 0.739301 0.146892 0.30243
502 1 0.652884 0.248116 0.36633
501 1 0.802021 0.0906589 0.257848
409 1 0.881584 0.100206 0.296098
1163 1 0.102477 0.217461 0.293363
1361 1 0.224651 0.239191 0.325756
723 1 0.495042 0.371168 0.321338
1041 1 0.695207 0.146856 0.387001
286 1 0.897976 0.220307 0.360494
1611 1 0.114296 0.228874 0.218597
155 1 0.432614 0.300472 0.380819
1648 1 0.653207 0.249963 0.280674
151 1 0.788578 0.305352 0.395866
1831 1 0.96472 0.314584 0.248145
1946 1 0.916226 0.118989 0.204369
1991 1 0.0953046 0.196164 0.373242
1308 1 0.167592 0.305869 0.202489
1101 1 0.139625 0.296307 0.286586
1625 1 0.629802 0.00110815 0.143013
1639 1 0.791539 0.400319 0.282549
500 1 0.965972 0.472664 0.124386
1619 1 0.52518 0.3776 0.243659
1778 1 0.587891 0.324556 0.415489
1097 1 0.996675 0.292695 0.360798
1476 1 0.978608 0.310302 0.435129
1202 1 0.0474338 0.361751 0.369443
218 1 0.917039 0.348349 0.337357
319 1 0.224858 0.407547 0.32661
941 1 0.322826 0.300825 0.27766
788 1 0.0102025 0.445123 0.254981
1959 1 0.398417 0.369831 0.412326
1262 1 0.705097 0.031697 -0.00051041
51 1 0.621253 0.305207 0.187675
592 1 0.572549 0.00305373 0.0798516
388 1 0.750394 0.371535 0.209183
560 1 0.302149 0.120285 0.347311
1643 1 0.28503 0.446916 0.00360968
1789 1 0.69745 0.471237 0.436323
352 1 0.813922 0.414777 0.198188
744 1 0.798579 0.325741 0.0885698
699 1 0.28147 0.358739 0.49375
1445 1 0.0498592 0.0825444 0.123603
33 1 0.365539 0.141887 0.447397
667 1 0.453621 0.358793 0.466297
1296 1 0.19063 0.353516 0.00543694
294 1 0.0409739 0.0267041 0.192049
1793 1 0.612565 0.454677 0.141456
555 1 0.484952 0.48165 0.0340149
839 1 0.170215 0.228504 0.00753636
727 1 0.934491 0.225821 0.442149
691 1 0.0167448 0.224279 0.299526
810 1 0.376871 0.30911 0.451783
421 1 0.338455 0.410147 0.34608
1084 1 0.44697 0.441667 0.492827
67 1 0.245505 0.424642 0.450894
1230 1 0.00416191 0.229876 0.480955
1646 1 0.221587 0.233231 0.429436
686 1 0.541614 0.307793 0.338221
135 1 0.40665 0.10692 0.243086
58 1 0.725466 0.218039 0.332871
769 1 0.861759 0.180351 0.25159
1524 1 0.955928 0.0649249 0.346876
628 1 0.076369 0.106389 0.436185
403 1 0.879755 0.492033 0.0780668
874 1 0.146938 0.252812 0.351941
1068 1 0.211132 0.313548 0.334795
131 1 0.379342 0.224505 0.455741
717 1 0.395679 0.246928 0.292405
1530 1 0.486811 0.349188 0.397853
630 1 0.578669 0.249245 0.305432
1710 1 0.880172 0.4146 0.393871
2001 1 0.0599825 0.294907 0.264836
482 1 0.117045 0.448334 0.242697
1783 1 0.142396 0.344626 0.345863
347 1 0.461183 0.297335 0.306592
1483 1 0.752038 0.375857 0.367408
1104 1 0.379717 0.330554 0.316336
1001 1 0.697899 0.176508 0.0231425
205 1 0.571024 0.252627 0.383524
959 1 0.839357 0.475599 0.340839
1673 1 0.153604 0.0275906 0.395011
1596 1 0.823391 0.060344 0.425642
436 1 0.264388 0.299535 0.437369
29 1 0.721704 0.386785 0.293391
150 1 0.71859 0.265798 0.407078
1005 1 0.827707 0.479175 0.265047
295 1 0.298481 0.0664662 0.0383777
1263 1 0.32706 0.448215 0.271449
1877 1 0.0518951 0.101766 0.210678
1044 1 0.625863 0.32567 0.344722
1062 1 0.457114 0.264362 0.447871
1257 1 0.70218 0.314831 0.348309
492 1 0.324016 0.0580138 0.148873
621 1 0.808273 0.322096 0.499104
763 1 0.205538 0.352667 0.458287
1541 1 0.550997 0.404162 0.172357
1236 1 0.398287 0.0799043 0.491364
735 1 0.523821 0.44845 0.486315
1496 1 0.262773 0.434241 0.0738612
1147 1 0.941394 0.265842 0.313366
1188 1 0.295299 0.365835 0.0884847
765 1 0.937159 0.34199 0.0263096
2036 1 0.362219 0.266513 0.38779
823 1 0.676549 0.0781067 0.421374
1437 1 0.533658 0.0147165 0.172419
558 1 0.283134 0.392239 0.16004
34 1 0.508874 0.0484806 0.0893104
1293 1 0.445002 0.181356 0.455284
248 1 0.859877 0.289433 0.425724
345 1 0.986334 0.143788 0.467894
1195 1 0.407491 0.142804 0.361973
149 1 0.308383 0.334614 0.360046
1015 1 0.518641 0.12092 0.435468
786 1 0.341412 0.18869 0.37227
2017 1 0.898411 0.0674112 0.434447
1697 1 0.858623 0.152617 0.349142
185 1 0.598366 4.41315e-05 0.245273
328 1 0.73874 0.0425051 0.370764
987 1 0.232841 0.326731 0.0718231
1806 1 0.805285 0.323432 0.273744
1209 1 0.982849 0.212465 0.163627
1254 1 0.0765417 0.284546 0.346987
314 1 0.0435725 0.267095 0.425921
1849 1 0.186534 0.0456558 0.163306
453 1 0.2796 0.261602 0.370208
1642 1 0.470716 0.107015 0.492629
920 1 0.512465 0.207502 0.270206
1627 1 0.526958 0.296574 0.480084
236 1 0.583901 0.181666 0.268406
539 1 0.520758 0.220838 0.439033
1931 1 0.469383 0.197684 0.0114416
564 1 0.732029 0.316376 0.256552
1732 1 0.101312 0.418943 0.391498
1007 1 0.938445 0.454192 0.41622
1288 1 0.200398 0.427999 0.0254021
1581 1 0.750242 0.461179 0.185151
1907 1 0.867687 0.289541 0.317163
1234 1 0.945612 0.0143427 0.40612
1912 1 0.281362 0.445472 0.383126
1229 1 0.2226 0.449186 0.149095
1316 1 0.418846 0.407093 0.349183
506 1 0.559258 0.395549 0.42956
1338 1 0.471419 0.433162 0.275201
726 1 0.89452 0.448531 0.135017
1993 1 0.870492 0.354373 0.20781
88 1 0.176404 0.426855 0.487451
730 1 0.0623292 0.437154 0.316932
842 1 0.137123 0.422728 0.107827
1522 1 0.193876 0.493231 0.439031
1161 1 0.234018 0.0345956 0.442246
1971 1 0.751812 0.464777 0.350432
1089 1 0.1121 0.0501259 0.161217
871 1 0.146563 0.427751 0.309035
576 1 0.18185 0.406971 0.395806
1911 1 0.532299 0.0218725 0.282256
1509 1 0.238169 0.35685 0.386658
1550 1 0.475735 0.170293 0.374274
1950 1 0.169483 0.103096 0.338085
762 1 0.547959 0.366913 0.0659786
1464 1 0.621328 0.0314019 0.313976
469 1 0.757338 0.482209 0.0260666
1669 1 0.972418 0.382166 0.408262
2048 1 0.243795 0.132945 0.0513698
1196 1 0.169386 0.174468 0.414197
745 1 0.348674 0.00843886 0.0906983
981 1 0.588864 0.0788462 0.0986169
536 1 0.563779 0.168112 0.368337
1363 1 0.938111 0.0627815 0.0255694
440 1 0.884865 0.16971 0.433832
835 1 0.923579 0.130671 0.36139
117 1 0.431138 0.400912 0.0161053
1383 1 0.122913 0.169347 0.00793569
372 1 0.439069 0.100605 0.418204
1258 1 0.415573 0.222733 0.361331
462 1 0.589362 0.237203 0.461604
512 1 0.962377 0.229229 0.237426
865 1 0.0451426 0.461839 0.0226107
1156 1 0.252945 0.340058 0.247258
237 1 0.392583 0.238171 0.0449603
61 1 0.831201 0.364578 0.431814
1486 1 0.33239 0.479038 0.0922349
1853 1 0.742408 0.0300787 0.446168
1920 1 0.824604 0.212018 0.396797
1508 1 0.0539785 0.187704 0.438527
670 1 0.651166 0.0399422 0.0645063
22 1 0.98457 0.0406715 0.118961
758 1 0.113542 0.487399 0.367469
1534 1 0.266165 0.370472 0.0201722
1294 1 0.870868 0.288442 0.545885
1930 1 0.599266 0.0952196 0.87449
889 1 0.39776 0.0106879 0.786272
718 1 0.491149 0.0410189 0.527429
1075 1 0.94209 0.0815965 0.504432
772 1 0.759654 0.42345 0.706546
869 1 0.0721902 0.472125 0.66463
634 1 0.220519 0.168934 0.575714
1113 1 0.305171 0.108282 0.619916
380 1 0.0671354 0.402 0.9624
1992 1 0.876762 0.361137 0.529159
447 1 0.421747 0.403167 0.561275
254 1 0.0619613 0.490467 0.85509
878 1 0.976011 0.146957 0.642226
1707 1 0.0474687 0.151099 0.688241
1456 1 0.0240458 0.213183 0.556575
1381 1 0.893638 0.494211 0.958851
274 1 0.393238 0.0664037 0.850163
1107 1 0.579826 0.0730363 0.545109
1367 1 0.733949 0.407812 0.598363
851 1 0.72343 0.254696 0.545972
1613 1 0.129335 0.177392 0.667771
1035 1 0.289298 0.139739 0.95226
162 1 0.0215663 0.0248345 0.952002
1232 1 0.543397 0.0557169 0.820261
1072 1 0.960357 0.0820772 0.597005
100 1 0.472263 0.110691 0.717831
1305 1 0.689188 0.106997 0.751361
507 1 0.469269 0.222905 0.678204
1764 1 0.659726 0.201319 0.65491
720 1 0.632132 0.281102 0.547286
740 1 0.341094 0.410039 0.623068
1129 1 0.167147 0.434069 0.836738
1019 1 0.670225 0.295752 0.63418
1804 1 0.124045 0.0417604 0.61345
896 1 0.992174 0.0318061 0.546698
1855 1 0.560941 0.490188 0.878323
26 1 0.16745 0.4509 0.767723
494 1 0.409429 0.148023 0.523746
1585 1 0.525704 0.455994 0.566074
1250 1 0.581772 0.412348 0.589835
732 1 0.240147 0.13442 0.646025
232 1 0.222424 0.160432 0.910039
2044 1 0.162193 0.275101 0.504285
1521 1 0.56457 0.432987 0.9474
741 1 0.947921 0.364418 0.816884
1302 1 0.360427 0.266651 0.561659
2021 1 0.290307 0.389286 0.674016
846 1 0.970036 0.303068 0.947106
231 1 0.233248 0.063465 0.516467
154 1 0.196811 0.142513 0.802318
466 1 0.616181 0.43526 0.655186
1659 1 0.706759 0.474346 0.758251
711 1 0.825004 0.289867 0.975789
1905 1 0.998255 0.404205 0.916692
206 1 0.650115 0.0320497 0.515548
1802 1 0.730154 0.100041 0.827389
1100 1 0.928731 0.108273 0.96178
272 1 0.467904 0.122095 0.578938
1260 1 0.896275 0.0940342 0.649427
1391 1 0.959394 0.333467 0.651259
1566 1 0.354516 0.008803 0.531696
1713 1 0.394276 0.271983 0.695813
1030 1 0.331302 0.053642 0.70748
593 1 0.134796 0.0900758 0.676304
208 1 0.525891 0.171308 0.91201
615 1 0.767679 0.0957591 0.601588
1980 1 0.256512 0.444389 0.736206
1742 1 0.534841 0.116434 0.623379
1572 1 0.354638 0.36371 0.713506
1042 1 0.622357 0.142218 0.571339
1342 1 0.977957 0.149651 0.54442
899 1 0.988011 0.449564 0.552838
697 1 0.080376 0.324717 0.52006
553 1 0.101773 0.254252 0.57624
1909 1 0.838668 0.437259 0.942589
1166 1 0.34812 0.096108 0.55214
1117 1 0.414742 0.0644342 0.573602
824 1 0.588481 0.177263 0.637571
1034 1 0.480518 0.00500992 0.686954
760 1 0.304255 0.172711 0.576054
1214 1 0.305184 0.421805 0.836913
1141 1 0.462951 0.296238 0.719963
223 1 0.413423 0.367012 0.664025
911 1 0.775363 0.208352 0.619526
1782 1 0.75543 0.244538 0.776318
703 1 0.712029 0.336045 0.592117
1194 1 0.0248621 0.35019 0.617139
1944 1 0.873084 0.0416432 0.589624
1888 1 0.168057 0.317011 0.733349
209 1 0.266441 0.347556 0.574955
1672 1 0.614438 0.347997 0.501699
915 1 0.762291 0.408559 0.985045
2011 1 0.344314 0.0316361 0.617592
1409 1 0.76534 0.329573 0.998039
903 1 0.711716 0.427818 0.910316
873 1 0.479394 0.376232 0.712861
1864 1 0.799936 0.258139 0.554026
1529 1 0.986511 0.152079 0.995133
1964 1 0.615352 0.000838095 0.808593
1795 1 0.94429 0.320516 0.566734
1474 1 0.872841 0.244526 0.929921
1582 1 0.469473 0.459888 0.61689
1074 1 0.525406 0.417066 0.648434
176 1 0.100368 0.126987 0.549511
805 1 0.0100293 0.290646 0.535832
573 1 0.864603 0.472653 0.579362
138 1 0.421533 0.249943 0.975151
390 1 0.358421 0.310139 0.623381
322 1 0.398357 0.449287 0.653865
530 1 0.188643 0.0237681 0.80626
497 1 0.417121 0.00358989 0.63802
340 1 0.958226 0.271602 0.740476
1334 1 0.00280593 0.372562 0.987928
1694 1 0.484462 0.27553 0.567077
157 1 0.21167 0.202238 0.644352
125 1 0.797492 0.466206 0.772424
1403 1 0.374153 0.483783 0.553195
1217 1 0.524779 0.0657168 0.682397
203 1 0.80523 0.119507 0.542855
1400 1 0.161715 0.0926614 0.51896
363 1 0.209655 0.017369 0.608942
35 1 0.458829 0.155272 0.644577
1827 1 0.713948 0.167138 0.619412
1743 1 0.750902 0.051121 0.663357
1255 1 0.828737 0.0530524 0.673003
1408 1 0.0261073 0.0614681 0.76861
439 1 0.402376 0.423843 0.730494
776 1 0.331387 0.162259 0.666512
7 1 0.505995 0.0439623 0.607006
1879 1 0.48986 0.331108 0.638232
1135 1 0.218047 0.39678 0.69103
782 1 0.243344 0.0815781 0.587108
1515 1 0.379721 0.093228 0.651327
549 1 0.530992 0.34605 0.793028
940 1 0.932775 0.438732 0.828975
829 1 0.168305 0.449689 0.564936
773 1 0.0746828 0.239755 0.673543
1997 1 0.299842 0.306988 0.673546
1328 1 0.351524 0.330466 0.835301
1295 1 0.828649 0.274395 0.665955
1314 1 0.355583 0.418446 0.989406
1154 1 0.824765 0.427122 0.53376
1132 1 0.135876 0.324286 0.583231
607 1 0.195912 0.238301 0.725478
1725 1 0.419567 0.286199 0.511181
1538 1 0.245736 0.339538 0.737028
1881 1 0.796881 0.213923 0.705897
1977 1 0.423891 0.336464 0.588554
1114 1 0.300081 0.386998 0.763024
1718 1 0.132555 0.309113 0.984613
1080 1 0.609769 0.250331 0.621329
2024 1 0.53741 0.273701 0.66555
449 1 0.179051 0.359125 0.637383
89 1 0.113672 0.391528 0.539606
1150 1 0.787045 0.48353 0.848665
1151 1 0.0824474 0.399842 0.639375
2015 1 0.460778 0.414555 0.774795
757 1 0.927083 0.405828 0.583935
1067 1 0.989591 0.277322 0.613481
1345 1 0.473647 0.0416539 0.855661
1369 1 0.984302 0.470028 0.706136
1799 1 0.183339 0.0810069 0.751526
957 1 0.542238 0.15184 0.557142
571 1 0.7966 0.444553 0.62414
1794 1 0.493897 0.231385 0.943396
153 1 0.882523 0.1082 0.550161
1636 1 0.0757453 0.159756 0.613728
474 1 0.492606 0.172843 0.759087
464 1 0.595287 0.226249 0.69942
195 1 0.974104 0.406161 0.754411
197 1 0.087661 0.312437 0.645475
1754 1 0.11892 0.145763 0.80669
324 1 0.266633 0.199619 0.689106
437 1 0.34104 0.0642227 0.787041
1099 1 0.413277 0.19627 0.736546
1238 1 0.174817 0.0966122 0.933134
1274 1 0.828145 0.0990964 0.733168
925 1 0.0767911 0.191384 0.741798
246 1 0.0839605 0.310424 0.808246
300 1 0.37204 0.134673 0.728387
642 1 0.275989 0.117227 0.716385
1724 1 0.606122 0.30145 0.715488
659 1 0.0612051 0.307236 0.943208
200 1 0.718235 0.249131 0.665988
338 1 0.908064 0.189898 0.833975
515 1 0.662777 0.239194 0.74009
267 1 0.154214 0.206191 0.786296
1513 1 0.328877 0.418526 0.549138
648 1 0.39954 0.270387 0.774154
40 1 0.431641 0.267707 0.624435
990 1 0.518916 0.446702 0.738642
1313 1 0.784163 0.140507 0.680336
1149 1 0.875747 0.143285 0.778398
682 1 0.893166 0.0438758 0.713668
1108 1 0.929587 0.146454 0.705008
1210 1 0.115993 0.26091 0.753599
538 1 0.329353 0.226595 0.621843
1036 1 0.424734 0.346464 0.764113
42 1 0.40258 0.205567 0.645176
19 1 0.665193 0.207318 0.577166
914 1 0.0162478 0.386312 0.689398
408 1 0.167233 0.277203 0.655528
1556 1 0.69206 0.435189 0.653131
696 1 0.633866 0.46491 0.737233
861 1 0.627154 0.376457 0.707608
1179 1 0.864946 0.24285 0.608898
977 1 0.812975 0.333919 0.572548
657 1 0.127328 0.30291 0.905074
569 1 0.301588 0.292465 0.891626
1937 1 0.523689 0.433833 0.82078
221 1 0.762984 0.285869 0.711756
1624 1 0.929802 0.247374 0.569041
1428 1 0.00566176 0.436693 0.846242
868 1 0.0186694 0.484768 0.774622
1040 1 0.690873 0.4799 0.971191
548 1 0.854321 0.187229 0.546289
796 1 0.887616 0.342509 0.618036
1614 1 0.00127754 0.42153 0.626553
1705 1 0.0953273 0.424185 0.830183
1218 1 0.144132 0.0318955 0.899159
1580 1 0.260015 0.104097 0.81509
1934 1 0.421623 0.334288 0.88498
496 1 0.503711 0.381554 0.576651
1766 1 0.761943 0.383045 0.52553
463 1 0.707185 0.390013 0.757556
304 1 0.770704 0.356973 0.738194
1652 1 0.0578197 0.0666359 0.648482
687 1 0.651872 0.449163 0.584817
358 1 0.120727 0.379793 0.76697
1122 1 0.832213 0.133118 0.608999
281 1 0.603644 0.0951522 0.69076
1798 1 0.725011 0.124977 0.965194
365 1 0.314979 0.0353625 0.867888
1071 1 0.495912 0.207397 0.513672
1221 1 0.144329 0.423205 0.963845
613 1 0.109989 0.106393 0.885179
645 1 0.332495 0.312569 0.761014
1297 1 0.378085 0.202122 0.80544
689 1 0.596026 0.0733903 0.618131
429 1 0.00631566 0.217315 0.716031
1854 1 0.079769 0.233303 0.920693
793 1 0.253127 0.186199 0.767805
894 1 0.689743 0.0984216 0.660337
1212 1 0.788836 0.0335946 0.767017
629 1 0.90308 0.101676 0.838311
518 1 0.862898 0.185392 0.675998
1788 1 0.277892 0.317507 0.816585
1987 1 0.76758 0.19394 0.532168
332 1 0.697292 0.187601 0.781403
1690 1 0.167857 0.435492 0.641746
1063 1 0.33805 0.356613 0.94611
1767 1 0.475435 0.276716 0.797988
998 1 0.796459 0.345278 0.652051
609 1 0.872571 0.416853 0.634367
1323 1 0.900999 0.293642 0.673192
1252 1 0.645029 0.197659 0.95372
1720 1 0.178809 0.35632 0.529061
1801 1 0.219584 0.394235 0.781186
1482 1 0.464978 0.480481 0.694637
1028 1 0.477828 0.269879 0.882252
1544 1 0.909586 0.161991 0.600924
664 1 0.898541 0.219986 0.762469
1284 1 0.0342094 0.365398 0.829097
1674 1 0.0676882 0.346924 0.728388
1286 1 0.658576 0.0116115 0.680914
1923 1 0.869675 0.42121 0.791558
1020 1 0.704995 0.298628 0.754558
895 1 0.99443 0.331634 0.766129
12 1 0.267997 0.197633 0.506993
263 1 0.26655 0.363604 0.88198
323 1 0.409579 0.393198 0.932971
401 1 0.39182 0.393724 0.826069
473 1 0.466769 0.433281 0.961263
1298 1 0.335287 0.231775 0.984898
1867 1 0.938569 0.232322 0.657336
169 1 0.0963197 0.459697 0.582388
337 1 0.429266 0.22451 0.554331
1411 1 0.171288 0.38079 0.905897
1787 1 0.377562 0.153233 0.59478
364 1 0.497484 0.201878 0.596812
249 1 0.787291 0.494827 0.683528
631 1 0.175318 0.11488 0.609802
1365 1 0.092824 0.00028635 0.994055
1414 1 0.116727 0.0496755 0.808043
2040 1 0.337749 0.204873 0.878818
251 1 0.191815 0.151871 0.720277
1917 1 0.455794 0.0784251 0.647289
1887 1 0.023018 0.37276 0.533236
1621 1 0.954076 0.478402 0.903952
766 1 0.212399 0.28369 0.870401
1735 1 0.4072 0.0937191 0.779318
815 1 0.456891 0.203076 0.835121
386 1 0.772304 0.164919 0.760754
649 1 0.533204 0.142708 0.693411
1929 1 0.207921 0.28612 0.791117
701 1 0.338173 0.208283 0.722335
767 1 0.927648 0.0843477 0.769457
1189 1 0.97093 0.147795 0.861385
1022 1 0.0208922 0.299763 0.698742
239 1 0.117497 0.425869 0.702784
1656 1 0.404089 0.260756 0.852826
1791 1 0.542764 0.339728 0.706073
1304 1 0.579266 0.288202 0.788928
49 1 0.722782 0.210732 0.938736
1426 1 0.0284978 0.187082 0.886998
188 1 0.0883147 0.367953 0.893798
1303 1 0.233478 0.433953 0.883498
561 1 0.240625 0.410827 0.536147
1593 1 0.549499 0.32493 0.949081
470 1 0.717795 0.188248 0.707806
366 1 0.968671 0.218647 0.797397
310 1 0.177391 0.356157 0.834556
1837 1 0.586098 0.410617 0.767292
2030 1 0.793926 0.224358 0.955329
1716 1 0.770415 0.285728 0.619782
1570 1 0.344666 0.429634 0.910449
830 1 0.262577 0.232418 0.916986
1938 1 0.787145 0.0108595 0.605111
816 1 0.734537 0.340855 0.810456
182 1 0.9226 0.357898 0.731458
993 1 0.246162 0.461767 0.809204
653 1 0.78201 0.399859 0.882706
1699 1 0.611765 0.00527545 0.998714
288 1 0.665933 0.473318 0.840179
1616 1 0.693851 0.256021 0.991338
105 1 0.910805 0.450968 0.508037
671 1 0.235615 0.288054 0.615822
1307 1 0.517481 0.113227 0.972916
1641 1 0.718674 0.354813 0.66627
937 1 0.861782 0.363066 0.683807
1520 1 0.0484049 0.158274 0.510523
6 1 0.0513361 0.413199 0.764113
1494 1 0.470637 0.107236 0.890216
521 1 0.720086 0.0743663 0.90232
238 1 0.0321856 0.0980686 0.581446
582 1 0.240629 0.0871877 0.974922
1738 1 0.943548 0.0343492 0.932981
133 1 0.0987254 0.120372 0.736524
834 1 0.320988 0.150942 0.796061
1597 1 0.721191 0.0265409 0.559165
379 1 0.669205 0.239559 0.892787
258 1 0.977486 0.0802542 0.829895
1436 1 0.881212 0.0716338 0.916299
1587 1 0.0490574 0.140426 0.836286
1549 1 0.931541 0.479173 0.628365
791 1 0.521922 0.242113 0.732071
52 1 0.59323 0.275331 0.886597
1808 1 0.80536 0.124371 0.830248
1051 1 0.207266 0.494761 0.673038
1112 1 0.647123 0.374447 0.573691
430 1 0.0135861 0.211993 0.638076
1809 1 0.27616 0.261644 0.741582
709 1 0.312918 0.239501 0.814928
1417 1 0.593961 0.41717 0.515259
1275 1 0.604364 0.177011 0.889934
1449 1 0.624247 0.212933 0.79776
16 1 0.824643 0.202935 0.795608
415 1 0.0438586 0.258751 0.771477
413 1 0.596074 0.120038 0.950352
1967 1 0.0948342 0.221723 0.83438
827 1 0.460095 0.323053 0.952004
1343 1 0.440673 0.442978 0.876258
1223 1 0.663081 0.0360342 0.610593
698 1 0.779924 0.255821 0.89188
636 1 0.904342 0.153033 0.901447
190 1 0.980387 0.337678 0.879509
1800 1 0.172107 0.197227 0.861275
614 1 0.107458 0.451013 0.901178
587 1 0.49745 0.383295 0.917781
520 1 0.639503 0.40475 0.835388
1008 1 0.989853 0.130046 0.75753
1968 1 0.0332684 0.0916134 0.987721
1473 1 0.87649 0.343232 0.799402
1349 1 0.417157 0.0818197 0.956953
546 1 0.972674 0.477846 0.985493
975 1 0.534693 0.333115 0.86779
678 1 0.568726 0.409322 0.874725
752 1 0.269174 0.201663 0.991796
1843 1 0.0968124 0.477197 0.777347
1501 1 0.587599 0.01847 0.8967
15 1 0.610347 0.339212 0.851983
1485 1 0.373105 0.135721 0.867422
1813 1 0.191106 0.243527 0.56826
693 1 0.811502 0.302168 0.80501
90 1 0.555434 0.323728 0.574854
927 1 0.570612 0.227396 0.563475
349 1 0.159643 0.00310682 0.554947