ITEM: TIMESTEP
100000
ITEM: NUMBER OF ATOMS
2048
ITEM: BOX BOUNDS pp pp pp
0.0000000000000000e+00 1.1635780856594225e+01
0.0000000000000000e+00 1.1635780856594225e+01
0.0000000000000000e+00 1.1635780856594225e+01
ITEM: ATOMS id type xs ys zs
1 1 0.000606946 0.000912169 0.00710018
2 1 0.0644676 0.054992 0.000763755
8 1 0.125925 0.0558441 0.0577126
12 1 0.254917 0.0609696 0.0594427
16 1 0.372221 0.0551299 0.0592115
17 1 0.501115 0.00530925 0.0019631
25 1 0.748068 0.00147143 0.000857976
27 1 0.818934 0.00314144 0.0600898
32 1 0.875384 0.0582942 0.0556398
35 1 0.0635945 0.116356 0.0587552
39 1 0.183829 0.118914 0.0601311
41 1 0.253515 0.124729 0.00853245
10 1 0.316179 0.0634461 0.000505166
47 1 0.438609 0.12271 0.0560136
51 1 0.545626 0.123422 0.0564406
24 1 0.613668 0.0625078 0.0612867
55 1 0.686508 0.119456 0.0605645
63 1 0.942391 0.123212 0.0616854
36 1 0.0100439 0.183698 0.0483055
38 1 0.188297 0.183655 0.00224701
42 1 0.314133 0.182909 0.00244332
60 1 0.753849 0.186038 0.0566969
59 1 0.815648 0.126846 0.061501
64 1 0.876618 0.182749 0.0547378
40 1 0.127376 0.187588 0.0565145
75 1 0.311017 0.247883 0.0605024
52 1 0.488013 0.188698 0.0603901
56 1 0.6201 0.18987 0.052223
54 1 0.689748 0.190403 0.00519369
91 1 0.817775 0.247069 0.0521622
95 1 0.93425 0.244591 0.0594303
67 1 0.062784 0.252161 0.0581781
71 1 0.184225 0.256543 0.0592509
79 1 0.423884 0.251552 0.0579142
85 1 0.61994 0.259098 0.000399985
87 1 0.685245 0.253421 0.0613656
86 1 0.685576 0.308149 0.000396147
66 1 0.0596858 0.316229 0.00381868
74 1 0.312413 0.315868 0.00434317
92 1 0.75964 0.316826 0.0578137
127 1 0.936475 0.368849 0.0543874
68 1 0.999121 0.315574 0.0601338
106 1 0.306069 0.422818 0.00126897
112 1 0.375527 0.429607 0.0591214
110 1 0.436216 0.431183 0.000832183
115 1 0.561444 0.376383 0.0605426
119 1 0.689023 0.375336 0.0552522
124 1 0.749227 0.437197 0.059088
123 1 0.821156 0.38141 0.0567805
128 1 0.88144 0.437174 0.0619132
98 1 0.0595006 0.441078 0.000736963
1029 1 0.125019 0.498162 0.00132776
1035 1 0.316079 0.489099 0.0563506
1037 1 0.379797 0.498992 0.0086351
1041 1 0.497141 0.499849 0.00232297
114 1 0.558227 0.438371 0.00544653
120 1 0.632534 0.440876 0.0576358
134 1 0.181129 0.0594781 0.124774
138 1 0.311084 0.053527 0.122739
142 1 0.438337 0.058112 0.120736
20 1 0.497559 0.0591335 0.0687426
23 1 0.686587 0.0035704 0.0649381
28 1 0.744317 0.0607248 0.0672225
4 1 0.00176134 0.0645664 0.0651445
165 1 0.129311 0.123371 0.120672
43 1 0.317741 0.120913 0.070359
177 1 0.495754 0.12025 0.123855
181 1 0.620985 0.124478 0.114978
150 1 0.685834 0.0649975 0.122715
189 1 0.87589 0.124983 0.11795
161 1 0.997479 0.121415 0.124237
162 1 0.0661498 0.183474 0.115842
44 1 0.245955 0.186337 0.0631279
48 1 0.378526 0.181129 0.0678399
178 1 0.554895 0.186299 0.112829
185 1 0.745509 0.129816 0.123446
166 1 0.184352 0.193918 0.12257
209 1 0.488885 0.247988 0.123257
182 1 0.689617 0.19435 0.119619
186 1 0.818298 0.18881 0.123104
221 1 0.871446 0.249412 0.121081
190 1 0.93834 0.189546 0.119745
197 1 0.124877 0.250194 0.121671
76 1 0.25247 0.310209 0.0663324
80 1 0.363949 0.311786 0.0694626
84 1 0.496579 0.311846 0.0642523
83 1 0.559422 0.254737 0.062658
213 1 0.619175 0.252172 0.120946
99 1 0.0566119 0.374732 0.0674831
72 1 0.119459 0.312775 0.064189
103 1 0.192824 0.36394 0.0654013
107 1 0.30523 0.373974 0.0720993
88 1 0.629133 0.323332 0.0633355
96 1 0.869174 0.31372 0.065593
225 1 0.994196 0.36658 0.121166
104 1 0.131691 0.42915 0.0656965
108 1 0.246504 0.433494 0.0732185
111 1 0.441082 0.375185 0.0641522
241 1 0.498541 0.382385 0.122292
245 1 0.618147 0.379337 0.124444
253 1 0.87838 0.382419 0.121762
100 1 0.992557 0.432685 0.065763
226 1 0.0534806 0.443649 0.124039
1031 1 0.196079 0.497249 0.0628399
1161 1 0.25336 0.499135 0.124333
1165 1 0.368469 0.499761 0.115775
238 1 0.433587 0.442799 0.123295
116 1 0.50243 0.438487 0.0644129
1051 1 0.822312 0.499942 0.0654074
129 1 0.00662201 0.00247953 0.129227
136 1 0.126243 0.0616042 0.181952
144 1 0.377731 0.0579441 0.187417
146 1 0.559804 0.0593 0.12921
151 1 0.695171 0.000833186 0.183058
154 1 0.812394 0.0562375 0.128117
130 1 0.0616898 0.0633378 0.125374
169 1 0.240344 0.120183 0.125109
140 1 0.250565 0.0633859 0.1854
173 1 0.377447 0.114954 0.127794
179 1 0.553952 0.12206 0.187326
152 1 0.621271 0.0684124 0.183435
156 1 0.740836 0.0740487 0.186684
158 1 0.939212 0.0626867 0.128393
168 1 0.119941 0.182965 0.184224
167 1 0.183201 0.130211 0.184836
174 1 0.436196 0.178245 0.129829
184 1 0.619581 0.18661 0.178946
183 1 0.682559 0.128824 0.175548
192 1 0.877168 0.181633 0.184766
191 1 0.942886 0.12815 0.185934
164 1 0.00720843 0.191897 0.179064
201 1 0.246367 0.246625 0.128732
170 1 0.309099 0.193442 0.125736
205 1 0.375505 0.24521 0.12886
207 1 0.435732 0.244781 0.187225
211 1 0.555909 0.243596 0.177647
188 1 0.749708 0.189678 0.18729
194 1 0.0603011 0.312298 0.127737
195 1 0.0629699 0.254615 0.181418
198 1 0.189077 0.310946 0.13108
202 1 0.306482 0.3074 0.126466
206 1 0.430907 0.312081 0.127425
212 1 0.496243 0.303523 0.183727
214 1 0.694908 0.310692 0.129255
217 1 0.757704 0.253275 0.127541
193 1 0.996314 0.253314 0.125601
229 1 0.12368 0.370694 0.126392
204 1 0.255309 0.312587 0.185581
210 1 0.564374 0.314893 0.125759
220 1 0.749511 0.317013 0.185178
218 1 0.809668 0.313876 0.128442
222 1 0.928624 0.314967 0.125098
227 1 0.0555116 0.378633 0.179555
232 1 0.121326 0.433925 0.187003
230 1 0.186381 0.435903 0.129304
231 1 0.1819 0.375079 0.186334
233 1 0.244756 0.375559 0.129919
235 1 0.312676 0.379159 0.18464
237 1 0.377281 0.375504 0.136239
244 1 0.499063 0.435842 0.186215
243 1 0.559022 0.380038 0.18288
247 1 0.692561 0.376073 0.186324
249 1 0.750748 0.378951 0.126981
1157 1 0.127213 0.492011 0.126757
234 1 0.307866 0.441663 0.126938
1169 1 0.50256 0.49809 0.125824
242 1 0.569398 0.441277 0.125995
246 1 0.682323 0.441962 0.128647
250 1 0.815117 0.441289 0.125398
1179 1 0.809657 0.499166 0.186356
254 1 0.934444 0.443979 0.127164
228 1 0.998577 0.440337 0.182864
131 1 0.0648 0.000175117 0.191691
261 1 0.135963 0.00538273 0.241661
266 1 0.312917 0.0580574 0.244511
148 1 0.498549 0.0488836 0.189275
274 1 0.558472 0.0591348 0.24792
277 1 0.625857 0.00334429 0.244913
155 1 0.803134 0.00428513 0.192942
159 1 0.939116 0.00273158 0.195653
163 1 0.0641406 0.120277 0.192543
262 1 0.183963 0.0665236 0.239326
297 1 0.254405 0.119778 0.246746
171 1 0.319642 0.119076 0.189577
175 1 0.444232 0.116582 0.189338
309 1 0.620527 0.117939 0.244163
187 1 0.818031 0.121954 0.189994
160 1 0.878659 0.0640974 0.189857
286 1 0.940441 0.0687256 0.248471
132 1 0.998203 0.0636276 0.188511
172 1 0.253527 0.180579 0.189045
298 1 0.310377 0.181474 0.248604
180 1 0.49613 0.184163 0.190707
310 1 0.686642 0.178729 0.241666
318 1 0.933141 0.184014 0.245674
289 1 0.99938 0.133334 0.24709
290 1 0.0620688 0.191287 0.242675
199 1 0.189591 0.24518 0.188509
329 1 0.248948 0.237849 0.248004
203 1 0.306091 0.246466 0.190452
176 1 0.37463 0.190699 0.19124
333 1 0.365296 0.247047 0.248831
306 1 0.555874 0.188849 0.249564
200 1 0.131022 0.305897 0.190127
326 1 0.192496 0.303733 0.247134
208 1 0.368607 0.305032 0.189411
334 1 0.43376 0.311058 0.245544
337 1 0.49651 0.253121 0.248124
338 1 0.561039 0.309087 0.249151
341 1 0.619711 0.253036 0.244925
215 1 0.689636 0.253451 0.187603
219 1 0.809315 0.250343 0.192012
223 1 0.936204 0.257601 0.188726
357 1 0.117252 0.373937 0.244756
330 1 0.310905 0.313122 0.248286
239 1 0.445699 0.371277 0.187556
216 1 0.623075 0.314042 0.188144
373 1 0.622962 0.370784 0.249267
342 1 0.690939 0.31814 0.248364
224 1 0.872414 0.314978 0.192518
196 1 0.996815 0.315924 0.197264
354 1 0.0551887 0.432146 0.244288
236 1 0.250293 0.435802 0.188305
365 1 0.378403 0.37587 0.239311
366 1 0.438147 0.433092 0.24307
369 1 0.501099 0.382497 0.248792
251 1 0.814533 0.383694 0.192882
255 1 0.934833 0.377361 0.194848
358 1 0.189138 0.4379 0.246738
1163 1 0.304675 0.498002 0.192288
240 1 0.376597 0.444863 0.193387
1297 1 0.504223 0.488675 0.249916
248 1 0.627543 0.437652 0.195333
374 1 0.690268 0.43989 0.249557
1175 1 0.685772 0.499603 0.189287
252 1 0.750825 0.441201 0.191297
256 1 0.8758 0.441122 0.188734
1281 1 0.998181 0.499168 0.249018
258 1 0.0678782 0.0621199 0.253324
264 1 0.127906 0.0572192 0.309318
268 1 0.243932 0.0538864 0.298932
267 1 0.309557 0.00149168 0.3058
270 1 0.439174 0.0611906 0.251605
281 1 0.739398 0.00121406 0.2537
288 1 0.874712 0.0620985 0.310794
287 1 0.944178 0.00577912 0.307295
260 1 0.00468289 0.0640955 0.310379
295 1 0.190601 0.114876 0.305173
301 1 0.372538 0.117701 0.262314
305 1 0.495765 0.120595 0.251713
280 1 0.620239 0.0641153 0.310828
278 1 0.681661 0.0695916 0.251434
282 1 0.808791 0.0627822 0.251744
319 1 0.936936 0.124751 0.307557
291 1 0.0603227 0.131435 0.308751
293 1 0.12164 0.126334 0.254103
296 1 0.125237 0.184357 0.311602
294 1 0.186596 0.177308 0.25038
302 1 0.432395 0.18371 0.250134
308 1 0.493026 0.183563 0.309355
307 1 0.555856 0.13352 0.3086
311 1 0.676646 0.132078 0.310111
313 1 0.751636 0.128402 0.251381
315 1 0.81219 0.125829 0.31147
317 1 0.874935 0.128832 0.250924
320 1 0.875869 0.183628 0.312052
321 1 0.00431044 0.247362 0.255926
292 1 0.00156735 0.190807 0.311919
323 1 0.070886 0.24884 0.307917
327 1 0.187448 0.239184 0.307452
335 1 0.428348 0.246746 0.307134
343 1 0.684033 0.245654 0.309049
314 1 0.807097 0.199273 0.254739
349 1 0.877142 0.245976 0.250097
351 1 0.935371 0.240459 0.310626
325 1 0.128862 0.250781 0.251434
339 1 0.555528 0.252318 0.309181
344 1 0.628503 0.311968 0.306044
345 1 0.744823 0.250363 0.250067
348 1 0.745301 0.310053 0.312293
346 1 0.813648 0.308643 0.250612
352 1 0.877423 0.306875 0.311717
350 1 0.941125 0.307138 0.261037
322 1 0.0610277 0.312554 0.251039
328 1 0.1318 0.314689 0.304067
361 1 0.251891 0.374184 0.252568
363 1 0.318609 0.372912 0.308838
336 1 0.379284 0.318038 0.308163
371 1 0.565889 0.37302 0.310154
381 1 0.868655 0.371714 0.256007
356 1 0.00459789 0.43266 0.311929
355 1 0.0634407 0.377837 0.308385
360 1 0.123431 0.436505 0.302828
359 1 0.187121 0.376314 0.304918
364 1 0.243189 0.436466 0.312448
362 1 0.308231 0.43506 0.250481
368 1 0.368117 0.43394 0.312437
367 1 0.440641 0.381242 0.305308
370 1 0.564294 0.434269 0.251625
375 1 0.679134 0.3777 0.31088
377 1 0.75361 0.375401 0.252584
382 1 0.926088 0.429394 0.255378
353 1 0.991994 0.37577 0.252923
1283 1 0.069447 0.495282 0.312013
1295 1 0.439374 0.497282 0.304082
376 1 0.627662 0.440886 0.304926
380 1 0.74747 0.438729 0.307753
378 1 0.818103 0.438206 0.258246
259 1 0.064917 0.000532921 0.313004
386 1 0.0675395 0.061626 0.374828
272 1 0.377886 0.0588379 0.321467
271 1 0.434587 0.00165286 0.315386
275 1 0.558033 0.00381649 0.313538
279 1 0.681542 0.00990643 0.315292
409 1 0.745378 0.0112073 0.369235
283 1 0.813158 0.00583163 0.314284
413 1 0.875042 0.00124338 0.372808
414 1 0.941173 0.0597061 0.373032
421 1 0.12257 0.120709 0.367331
390 1 0.188614 0.0629066 0.372509
299 1 0.303664 0.122051 0.316303
276 1 0.500903 0.0656249 0.312549
402 1 0.553458 0.0631122 0.373329
284 1 0.737031 0.076741 0.316631
445 1 0.877013 0.120298 0.372338
304 1 0.370494 0.182225 0.313152
303 1 0.429943 0.126216 0.320409
433 1 0.497864 0.131053 0.367221
441 1 0.745952 0.135034 0.372652
446 1 0.942826 0.179084 0.373328
300 1 0.254979 0.188561 0.314576
461 1 0.375724 0.244259 0.369013
434 1 0.55255 0.192331 0.371
312 1 0.617778 0.193683 0.31961
316 1 0.755179 0.195532 0.315675
347 1 0.820912 0.249397 0.322102
449 1 0.99746 0.249141 0.371391
324 1 0.0010459 0.308762 0.317665
332 1 0.24356 0.308539 0.312741
331 1 0.312423 0.25116 0.317842
462 1 0.426905 0.304646 0.374875
340 1 0.500027 0.312373 0.313118
465 1 0.492312 0.252105 0.372766
450 1 0.0751124 0.313564 0.367947
485 1 0.132267 0.374693 0.364564
454 1 0.185201 0.312638 0.374346
489 1 0.24694 0.373933 0.368745
458 1 0.306335 0.315193 0.373671
493 1 0.377919 0.372345 0.367705
501 1 0.623992 0.365822 0.371094
379 1 0.80727 0.369274 0.322402
509 1 0.869262 0.366505 0.372667
383 1 0.937402 0.3744 0.319744
482 1 0.0602352 0.428853 0.372103
486 1 0.190018 0.433297 0.371517
490 1 0.311331 0.436337 0.373548
497 1 0.501185 0.376204 0.370339
498 1 0.55979 0.43509 0.373939
502 1 0.675478 0.435337 0.368944
1409 1 0.000559328 0.491155 0.373468
1417 1 0.251125 0.499529 0.371387
1421 1 0.375254 0.499827 0.371404
494 1 0.440706 0.441223 0.374199
372 1 0.502518 0.439637 0.318159
384 1 0.868441 0.441634 0.323105
1311 1 0.93191 0.498207 0.317372
389 1 0.12757 4.81624e-05 0.38017
394 1 0.309726 0.0607657 0.37583
397 1 0.380645 0.000774671 0.379967
398 1 0.435026 0.0576171 0.385993
401 1 0.495173 0.00195171 0.377096
405 1 0.615792 0.00156456 0.375174
408 1 0.623107 0.0600562 0.437392
407 1 0.695498 0.00732081 0.437108
411 1 0.800989 0.00738046 0.432111
416 1 0.870994 0.0588401 0.436097
417 1 0.00550926 0.117578 0.381215
419 1 0.074895 0.117086 0.436475
429 1 0.377454 0.120994 0.385822
437 1 0.609762 0.12259 0.376054
406 1 0.6796 0.0680922 0.376712
412 1 0.745201 0.0701234 0.430662
410 1 0.811959 0.0681557 0.375431
443 1 0.811224 0.124549 0.43725
447 1 0.940282 0.121066 0.431153
418 1 0.0609386 0.181154 0.376131
422 1 0.182589 0.18071 0.376472
425 1 0.251381 0.127067 0.376825
451 1 0.0620998 0.246825 0.430075
453 1 0.126719 0.244347 0.377586
428 1 0.246525 0.191378 0.436601
457 1 0.245931 0.245242 0.376532
426 1 0.311842 0.187891 0.379804
430 1 0.435695 0.191992 0.382742
440 1 0.612572 0.1892 0.43555
438 1 0.683808 0.188863 0.376391
473 1 0.752334 0.245098 0.383346
442 1 0.812541 0.19026 0.381313
477 1 0.88613 0.248336 0.378079
452 1 0.00556995 0.305999 0.437498
455 1 0.187015 0.254108 0.437294
469 1 0.618447 0.254354 0.377179
470 1 0.682777 0.310792 0.382047
474 1 0.814978 0.307415 0.383002
478 1 0.940711 0.311023 0.388027
491 1 0.32202 0.374468 0.428853
495 1 0.429604 0.371205 0.434049
466 1 0.558757 0.316788 0.381485
505 1 0.742908 0.371375 0.37509
481 1 0.995909 0.37005 0.381073
487 1 0.191951 0.380259 0.434276
500 1 0.500192 0.43618 0.428933
511 1 0.927988 0.376825 0.433798
1415 1 0.194617 0.497112 0.42846
496 1 0.381925 0.44513 0.435682
1423 1 0.446586 0.499682 0.43528
506 1 0.800973 0.439417 0.379024
510 1 0.93361 0.445073 0.377667
392 1 0.132986 0.0607817 0.441091
400 1 0.369857 0.0592597 0.44277
529 1 0.495503 0.00515514 0.498674
534 1 0.692862 0.0610817 0.499453
542 1 0.935231 0.0569709 0.497266
388 1 0.997222 0.0590433 0.442013
396 1 0.246494 0.0628231 0.438031
427 1 0.301683 0.123432 0.441849
526 1 0.43547 0.0666499 0.496955
431 1 0.437823 0.12204 0.438407
404 1 0.493755 0.0649373 0.441705
439 1 0.673278 0.121712 0.442972
573 1 0.884681 0.118724 0.497449
545 1 0.998409 0.120314 0.496718
423 1 0.190427 0.127118 0.441014
432 1 0.372312 0.182997 0.441385
436 1 0.494458 0.184633 0.44336
435 1 0.554803 0.12548 0.443626
448 1 0.873077 0.182587 0.439206
574 1 0.94595 0.18012 0.494408
577 1 0.00657565 0.249165 0.495471
420 1 0.00319652 0.189069 0.438869
581 1 0.116078 0.247924 0.496486
424 1 0.12187 0.188977 0.439712
585 1 0.244733 0.249353 0.498575
554 1 0.310552 0.187787 0.499763
459 1 0.307198 0.246853 0.437626
593 1 0.493046 0.248181 0.49671
566 1 0.679247 0.188165 0.490285
444 1 0.752491 0.187808 0.44463
605 1 0.877234 0.248916 0.496727
479 1 0.936512 0.247078 0.443812
460 1 0.248311 0.309053 0.440025
463 1 0.434507 0.251997 0.440654
467 1 0.556805 0.253769 0.442053
471 1 0.687318 0.253449 0.446773
475 1 0.810342 0.250199 0.447804
480 1 0.874985 0.309104 0.438285
578 1 0.0631699 0.31415 0.498326
456 1 0.128757 0.313766 0.440542
617 1 0.253767 0.370588 0.493247
586 1 0.322149 0.313847 0.49615
464 1 0.378322 0.312726 0.440803
590 1 0.436913 0.316667 0.498645
468 1 0.501891 0.31599 0.445732
472 1 0.621835 0.315021 0.442895
503 1 0.679947 0.374463 0.438973
476 1 0.749327 0.316141 0.439516
507 1 0.816107 0.37194 0.438597
609 1 0.990865 0.373872 0.499527
610 1 0.0552045 0.437134 0.498433
483 1 0.0635997 0.377825 0.442513
621 1 0.373602 0.381132 0.498269
622 1 0.435247 0.436925 0.499419
499 1 0.566821 0.381147 0.445882
633 1 0.749287 0.381902 0.499252
484 1 0.994989 0.432666 0.437791
1411 1 0.0613311 0.499765 0.444014
488 1 0.126821 0.444071 0.444431
492 1 0.253517 0.438108 0.442438
504 1 0.632823 0.446879 0.440197
508 1 0.737656 0.444392 0.443809
634 1 0.812101 0.442176 0.497045
512 1 0.867557 0.446203 0.438014
638 1 0.935122 0.440384 0.497543
513 1 0.00426306 0.00205688 0.500465
518 1 0.190254 0.0592701 0.503753
521 1 0.257752 0.000587017 0.505652
528 1 0.386289 0.0541379 0.560582
530 1 0.566039 0.0556418 0.502472
536 1 0.636192 0.0613652 0.561165
537 1 0.754735 0.00182845 0.506154
547 1 0.0571354 0.122291 0.5622
514 1 0.0599659 0.0630617 0.502182
520 1 0.127711 0.0660557 0.559089
522 1 0.312079 0.0632095 0.509651
557 1 0.374886 0.120925 0.505463
561 1 0.497644 0.121297 0.513744
565 1 0.618228 0.119388 0.502365
540 1 0.751113 0.064273 0.561267
569 1 0.748978 0.124426 0.500657
538 1 0.815564 0.0659169 0.506469
575 1 0.944801 0.119601 0.559203
546 1 0.0648909 0.17828 0.501489
549 1 0.12954 0.131157 0.50715
550 1 0.194754 0.183927 0.504672
553 1 0.250489 0.125446 0.507402
558 1 0.430927 0.183418 0.501985
562 1 0.556072 0.183201 0.506203
568 1 0.62382 0.185904 0.558336
567 1 0.685791 0.128249 0.549943
570 1 0.811148 0.183152 0.504421
576 1 0.873029 0.185962 0.558101
548 1 0.00330761 0.188293 0.556569
589 1 0.37416 0.248625 0.505224
599 1 0.685867 0.240808 0.55672
607 1 0.940218 0.249095 0.5542
579 1 0.0597116 0.252827 0.562465
582 1 0.18826 0.308425 0.506033
587 1 0.312397 0.261719 0.560986
595 1 0.560058 0.256625 0.556954
597 1 0.624471 0.255395 0.500471
601 1 0.74535 0.255202 0.502655
606 1 0.941134 0.311361 0.501138
584 1 0.120036 0.316678 0.561248
613 1 0.131475 0.370498 0.501237
592 1 0.376061 0.314763 0.557252
596 1 0.497356 0.313033 0.56152
594 1 0.56448 0.317334 0.502773
600 1 0.624888 0.315343 0.561996
631 1 0.689739 0.374982 0.562199
598 1 0.679801 0.315383 0.502085
604 1 0.754966 0.32013 0.554742
602 1 0.818222 0.317995 0.502805
608 1 0.879471 0.314451 0.556778
580 1 0.996518 0.314619 0.559077
611 1 0.0592564 0.376891 0.560787
616 1 0.120591 0.432025 0.554746
614 1 0.193014 0.428658 0.500822
618 1 0.311541 0.433108 0.503402
625 1 0.501159 0.381619 0.506385
629 1 0.62478 0.378932 0.503778
635 1 0.813361 0.382547 0.559605
637 1 0.874226 0.379977 0.500612
612 1 0.000507314 0.438594 0.56006
1541 1 0.124125 0.49922 0.504501
1543 1 0.183728 0.492652 0.562372
1545 1 0.246096 0.49342 0.502762
1551 1 0.43602 0.494642 0.559645
626 1 0.568166 0.442422 0.512766
630 1 0.681959 0.448587 0.507665
636 1 0.743154 0.439161 0.556235
640 1 0.873079 0.438552 0.559313
1537 1 0.998157 0.494374 0.501562
516 1 0.00850402 0.05797 0.564555
646 1 0.184433 0.0601769 0.624883
532 1 0.502393 0.0557902 0.563052
535 1 0.691313 0.000268417 0.562793
524 1 0.253537 0.0670524 0.564331
650 1 0.308675 0.063115 0.624322
685 1 0.378455 0.120905 0.622818
563 1 0.565683 0.116955 0.565441
693 1 0.633749 0.116759 0.623325
544 1 0.8774 0.0705051 0.566418
674 1 0.0597022 0.186527 0.612713
552 1 0.132348 0.186285 0.569791
551 1 0.191051 0.13146 0.568361
555 1 0.312155 0.127571 0.568794
560 1 0.377325 0.185883 0.56642
559 1 0.435493 0.128974 0.562844
690 1 0.559486 0.185383 0.616334
694 1 0.686425 0.185838 0.621354
572 1 0.749479 0.186119 0.568189
697 1 0.750203 0.126298 0.624951
571 1 0.808162 0.128522 0.569723
702 1 0.94338 0.179043 0.612676
556 1 0.257612 0.196114 0.568247
682 1 0.319586 0.197546 0.62217
591 1 0.43614 0.24831 0.565451
564 1 0.49636 0.191176 0.564078
729 1 0.74241 0.246576 0.621882
709 1 0.126815 0.251961 0.618252
583 1 0.190892 0.253774 0.567204
721 1 0.502946 0.254203 0.621969
726 1 0.688484 0.30992 0.623172
603 1 0.806136 0.25851 0.568618
733 1 0.874316 0.260376 0.618401
615 1 0.189911 0.372268 0.569776
588 1 0.249578 0.316188 0.573286
619 1 0.308669 0.373043 0.564676
714 1 0.316286 0.314535 0.624205
627 1 0.560884 0.37485 0.569159
761 1 0.744943 0.37465 0.619133
730 1 0.814304 0.32228 0.615066
734 1 0.941752 0.316905 0.624114
741 1 0.116382 0.380272 0.624119
620 1 0.247472 0.435331 0.568593
623 1 0.442041 0.379049 0.56908
765 1 0.876736 0.377358 0.614922
639 1 0.944576 0.379929 0.569381
1547 1 0.314473 0.493696 0.564043
624 1 0.376993 0.438018 0.566559
628 1 0.499565 0.439844 0.565692
632 1 0.623583 0.442331 0.571911
762 1 0.8135 0.443736 0.617238
766 1 0.939608 0.445836 0.623847
642 1 0.0700742 0.0623393 0.62829
652 1 0.247898 0.0581942 0.684529
656 1 0.382519 0.0604352 0.685131
654 1 0.439652 0.0515988 0.626768
658 1 0.565438 0.0619368 0.634414
661 1 0.631328 0.00270878 0.630666
662 1 0.694267 0.0612679 0.627365
668 1 0.759368 0.0551271 0.685338
666 1 0.816588 0.0576085 0.626158
672 1 0.876563 0.0554022 0.683888
673 1 0.000256517 0.112696 0.627087
660 1 0.497742 0.0641799 0.683376
670 1 0.933773 0.0662841 0.625414
676 1 0.00348332 0.185042 0.680667
675 1 0.0621327 0.130324 0.673713
677 1 0.132505 0.125861 0.626105
680 1 0.132196 0.186436 0.683419
681 1 0.250778 0.128998 0.627017
683 1 0.317109 0.139106 0.685214
686 1 0.438207 0.185984 0.627439
689 1 0.502133 0.126808 0.62587
696 1 0.628717 0.186893 0.678347
700 1 0.744674 0.182418 0.687015
699 1 0.809108 0.125665 0.676879
701 1 0.880074 0.128581 0.627283
703 1 0.936442 0.129211 0.684613
707 1 0.0723305 0.242333 0.680267
678 1 0.191219 0.188373 0.627542
723 1 0.561792 0.242444 0.680063
725 1 0.624407 0.24854 0.625655
727 1 0.683464 0.249546 0.681048
698 1 0.81547 0.188195 0.625389
704 1 0.875159 0.189811 0.686892
705 1 0.00502568 0.254506 0.628817
711 1 0.189207 0.254023 0.679997
713 1 0.252204 0.255879 0.625846
716 1 0.257485 0.311902 0.686661
715 1 0.319139 0.25444 0.686056
717 1 0.381322 0.253394 0.627816
719 1 0.439093 0.250365 0.682133
731 1 0.812687 0.255391 0.675581
735 1 0.931952 0.259387 0.681612
706 1 0.0592978 0.315519 0.625202
712 1 0.116391 0.31396 0.686902
710 1 0.184235 0.316258 0.625546
720 1 0.377185 0.312754 0.68742
718 1 0.437341 0.312746 0.629725
724 1 0.497644 0.312673 0.685026
722 1 0.562119 0.314665 0.631569
732 1 0.757952 0.316117 0.675095
736 1 0.877428 0.322485 0.686343
742 1 0.18594 0.433518 0.627146
745 1 0.243533 0.376994 0.632941
749 1 0.374095 0.377089 0.632788
753 1 0.501138 0.382487 0.630187
757 1 0.628774 0.375639 0.626331
758 1 0.689429 0.431628 0.628564
763 1 0.817192 0.380505 0.680603
737 1 0.997993 0.382958 0.630454
738 1 0.0581688 0.439265 0.630958
744 1 0.119183 0.443084 0.687438
1669 1 0.12133 0.495477 0.626108
1671 1 0.1831 0.499251 0.682791
748 1 0.247586 0.443436 0.685781
746 1 0.315912 0.444039 0.631917
750 1 0.444179 0.446576 0.630691
754 1 0.561297 0.444049 0.635295
764 1 0.753239 0.44307 0.683766
1691 1 0.813906 0.497193 0.685122
644 1 0.00104617 0.0551849 0.688503
774 1 0.182481 0.0596338 0.748219
777 1 0.25451 0.00404633 0.746824
651 1 0.317925 0.000526472 0.691501
786 1 0.56229 0.0583576 0.749062
663 1 0.691056 0.00356709 0.692768
794 1 0.809576 0.0609895 0.745801
798 1 0.935087 0.0550107 0.744764
648 1 0.119843 0.0677813 0.696112
778 1 0.305203 0.0731658 0.742862
813 1 0.376086 0.121343 0.743626
817 1 0.501036 0.123479 0.742161
664 1 0.628448 0.0661089 0.692862
695 1 0.692251 0.121231 0.691564
801 1 0.997103 0.116514 0.748471
802 1 0.0708201 0.182298 0.739194
679 1 0.188543 0.125607 0.688069
806 1 0.188823 0.183872 0.746359
809 1 0.251868 0.130651 0.742193
687 1 0.437622 0.126891 0.689233
691 1 0.568356 0.126602 0.688178
826 1 0.811791 0.181249 0.7384
829 1 0.873031 0.126756 0.741505
837 1 0.126359 0.245533 0.744781
684 1 0.254587 0.193516 0.688523
810 1 0.315606 0.192098 0.746654
688 1 0.37797 0.19334 0.692779
692 1 0.494625 0.189527 0.691565
830 1 0.931687 0.192655 0.74982
833 1 0.999401 0.244237 0.746043
841 1 0.25128 0.254712 0.746827
845 1 0.381191 0.257227 0.747266
846 1 0.442988 0.307713 0.748806
853 1 0.621514 0.252944 0.745723
857 1 0.750485 0.25803 0.737264
708 1 0.0034841 0.312763 0.691272
842 1 0.318009 0.313443 0.746579
850 1 0.565671 0.317065 0.745783
728 1 0.628009 0.314334 0.689515
885 1 0.629166 0.369399 0.748825
759 1 0.686473 0.374765 0.688674
858 1 0.814834 0.321052 0.744352
739 1 0.0593354 0.376827 0.69505
743 1 0.183019 0.383766 0.692214
873 1 0.247697 0.375832 0.748691
747 1 0.312208 0.375711 0.688847
877 1 0.369608 0.379286 0.749148
751 1 0.439386 0.381593 0.689445
756 1 0.500421 0.437032 0.693763
755 1 0.558265 0.376365 0.688168
760 1 0.630289 0.435085 0.690359
889 1 0.751108 0.37679 0.748651
768 1 0.883092 0.434429 0.690475
767 1 0.942506 0.380576 0.69023
740 1 0.000497117 0.441026 0.697764
866 1 0.0622273 0.440832 0.74976
1797 1 0.122534 0.496686 0.747277
874 1 0.308793 0.438761 0.746988
752 1 0.373208 0.439991 0.694462
1679 1 0.43872 0.496635 0.694158
886 1 0.691219 0.443751 0.747601
1817 1 0.755156 0.497287 0.748128
890 1 0.816299 0.4422 0.7481
770 1 0.0569909 0.0520302 0.750079
776 1 0.120192 0.055126 0.808672
780 1 0.257759 0.0624215 0.810896
782 1 0.434884 0.0543042 0.751886
788 1 0.504135 0.0606521 0.80331
787 1 0.570231 0.00367506 0.812351
789 1 0.625975 0.00908341 0.750031
790 1 0.691509 0.0623579 0.754566
795 1 0.815596 0.00224216 0.809045
772 1 0.999724 0.0577938 0.808217
803 1 0.0565984 0.119136 0.81062
805 1 0.126778 0.123688 0.758018
807 1 0.199591 0.120223 0.801825
784 1 0.370374 0.0639747 0.807478
821 1 0.632156 0.122901 0.763558
825 1 0.750336 0.122508 0.752727
800 1 0.875616 0.0631528 0.796239
831 1 0.939194 0.120831 0.804553
804 1 0.00241459 0.184897 0.811394
812 1 0.253161 0.183169 0.808643
815 1 0.435776 0.125036 0.810367
814 1 0.437323 0.186283 0.752506
820 1 0.49816 0.180183 0.809028
818 1 0.562863 0.178187 0.754627
832 1 0.872941 0.183769 0.809362
839 1 0.195437 0.24182 0.807667
843 1 0.311628 0.24949 0.808585
816 1 0.379983 0.196721 0.810524
849 1 0.503758 0.249265 0.754924
824 1 0.627031 0.189102 0.808646
822 1 0.693822 0.192848 0.751267
859 1 0.805786 0.248229 0.809402
861 1 0.867402 0.248747 0.750736
835 1 0.0587507 0.252972 0.81191
840 1 0.124709 0.310486 0.808617
838 1 0.186332 0.311402 0.752897
847 1 0.440175 0.251494 0.805821
851 1 0.562507 0.250385 0.811204
854 1 0.686426 0.311625 0.751761
863 1 0.929395 0.257317 0.808054
834 1 0.0648023 0.314755 0.752127
869 1 0.125111 0.37291 0.751655
848 1 0.381114 0.318501 0.808617
852 1 0.505245 0.313875 0.807108
860 1 0.756132 0.315267 0.805345
864 1 0.874017 0.320475 0.809404
862 1 0.943438 0.320262 0.7519
836 1 0.999927 0.314714 0.811493
865 1 0.00576933 0.379714 0.754561
867 1 0.0641308 0.376983 0.812392
870 1 0.19089 0.437475 0.755712
875 1 0.313377 0.376232 0.804592
880 1 0.36991 0.435846 0.810839
879 1 0.439394 0.377926 0.810452
881 1 0.498084 0.377795 0.750186
883 1 0.568121 0.3776 0.805053
887 1 0.687365 0.386436 0.808374
891 1 0.814769 0.379403 0.8064
893 1 0.878104 0.379045 0.752011
895 1 0.940503 0.384236 0.810082
1795 1 0.0575425 0.498192 0.809788
872 1 0.124372 0.438607 0.8108
876 1 0.251997 0.439121 0.810284
878 1 0.434696 0.442513 0.760238
882 1 0.560632 0.449986 0.759656
1813 1 0.624452 0.499109 0.752448
892 1 0.755683 0.44042 0.811069
894 1 0.937557 0.443572 0.753539
897 1 0.00102949 0.00181017 0.86507
898 1 0.0657374 0.0620186 0.870398
901 1 0.122945 0.00161419 0.871561
775 1 0.193578 0.00371473 0.815617
902 1 0.181619 0.059457 0.874454
910 1 0.444899 0.0605229 0.860364
791 1 0.687772 0.000678234 0.814296
921 1 0.750772 0.00378177 0.870986
926 1 0.933509 0.0584682 0.868955
933 1 0.122519 0.121645 0.868935
792 1 0.633264 0.0628959 0.817915
796 1 0.753314 0.0651503 0.816938
922 1 0.820671 0.0634423 0.866086
827 1 0.809799 0.124737 0.814407
957 1 0.882071 0.122326 0.869417
929 1 0.99969 0.115104 0.867694
811 1 0.314436 0.130445 0.818381
942 1 0.44079 0.187241 0.86806
945 1 0.500475 0.126085 0.871967
819 1 0.564939 0.128223 0.82111
823 1 0.691477 0.128374 0.826276
828 1 0.753936 0.180224 0.816835
958 1 0.943283 0.18458 0.864788
808 1 0.11894 0.191743 0.813624
965 1 0.13425 0.239847 0.873277
969 1 0.248568 0.248898 0.871502
938 1 0.316036 0.19571 0.866477
981 1 0.626813 0.24573 0.872507
961 1 0.998023 0.246349 0.862502
844 1 0.25017 0.308011 0.812672
973 1 0.371151 0.258019 0.873572
974 1 0.435802 0.312067 0.868313
977 1 0.499155 0.252358 0.874066
978 1 0.561308 0.311935 0.864937
856 1 0.623979 0.306829 0.815207
855 1 0.703677 0.250967 0.813934
989 1 0.878361 0.254854 0.869668
871 1 0.18227 0.374193 0.815791
1001 1 0.253458 0.372861 0.866412
970 1 0.315793 0.32 0.866812
1009 1 0.500416 0.369444 0.864649
1013 1 0.622752 0.373358 0.867385
982 1 0.689997 0.318911 0.86776
986 1 0.814378 0.317534 0.873067
990 1 0.937151 0.312704 0.869153
994 1 0.0656709 0.433599 0.87031
1005 1 0.371244 0.379722 0.870115
1006 1 0.435647 0.431576 0.874504
1014 1 0.692023 0.43456 0.874021
1018 1 0.81739 0.432415 0.869496
1925 1 0.124737 0.49709 0.874241
998 1 0.189931 0.442582 0.867041
1929 1 0.256598 0.499171 0.866488
1933 1 0.38291 0.498484 0.874876
884 1 0.498502 0.439099 0.813036
888 1 0.618818 0.44343 0.817575
1815 1 0.690754 0.496411 0.818609
896 1 0.880707 0.439437 0.813566
868 1 0.995328 0.444414 0.819886
905 1 0.244651 0.00774896 0.879216
906 1 0.313298 0.057294 0.87535
916 1 0.490779 0.0545649 0.933082
917 1 0.630064 0.00413933 0.875062
920 1 0.61506 0.0602352 0.935166
924 1 0.750932 0.059446 0.935071
928 1 0.87586 0.0553712 0.930811
900 1 0.00229624 0.0643129 0.93472
935 1 0.185204 0.119709 0.934063
937 1 0.249833 0.120676 0.880273
941 1 0.377265 0.119668 0.877259
943 1 0.438876 0.120047 0.928414
914 1 0.558353 0.066286 0.875493
918 1 0.68047 0.0692131 0.888376
953 1 0.756254 0.12001 0.882248
932 1 0.00393394 0.184411 0.934234
930 1 0.0708514 0.184632 0.882882
936 1 0.133158 0.185941 0.935053
934 1 0.191703 0.184506 0.87685
940 1 0.253997 0.182013 0.937002
949 1 0.62026 0.12988 0.878662
955 1 0.82763 0.126736 0.932469
959 1 0.943369 0.128733 0.930546
967 1 0.191542 0.248598 0.936574
971 1 0.310729 0.245025 0.934647
944 1 0.377023 0.188973 0.933663
946 1 0.557037 0.190787 0.878844
950 1 0.688826 0.18865 0.879709
954 1 0.809025 0.191072 0.881166
960 1 0.876356 0.196388 0.932947
963 1 0.0609425 0.252017 0.933378
966 1 0.193602 0.308299 0.877299
975 1 0.437827 0.255913 0.934187
979 1 0.563242 0.258987 0.933774