ITEM: TIMESTEP
100000
ITEM: NUMBER OF ATOMS
2048
ITEM: BOX BOUNDS pp pp pp
0.0000000000000000e+00 1.1950412657485773e+01
0.0000000000000000e+00 1.1950412657485773e+01
0.0000000000000000e+00 1.1950412657485773e+01
ITEM: ATOMS id type xs ys zs
271 1 0.429963 0.000158044 0.311688
500 1 0.492712 0.44597 0.437709
1157 1 0.12355 0.492166 0.126501
630 1 0.692371 0.438113 0.500223
281 1 0.745822 0.00311917 0.260347
16 1 0.29875 0.136495 0.0690619
47 1 0.436947 0.1183 0.0575268
533 1 0.616089 0.00274899 0.497584
413 1 0.869304 0.00383824 0.377212
54 1 0.691427 0.184063 0.00519832
162 1 0.00367362 0.181553 0.0717367
30 1 0.937658 0.0580996 0.00677591
52 1 0.495944 0.182461 0.0602123
125 1 0.877327 0.381519 0.00822458
139 1 0.304701 0.00251925 0.189331
259 1 0.0600906 0.000246574 0.306497
67 1 0.0586773 0.245666 0.0567754
71 1 0.188309 0.248821 0.0541071
61 1 0.879035 0.122774 0.00277493
275 1 0.56161 0.0116951 0.306584
83 1 0.547445 0.25324 0.0591075
585 1 0.256016 0.248173 0.491368
638 1 0.936628 0.438167 0.496596
68 1 0.00299731 0.313758 0.0598499
72 1 0.134461 0.308996 0.0565804
76 1 0.253123 0.300705 0.063448
515 1 0.0678364 0.0722128 0.495872
606 1 0.928577 0.305213 0.497718
97 1 0.00905421 0.369248 0.00348741
103 1 0.194109 0.378824 0.0654764
107 1 0.308346 0.371937 0.0597242
119 1 0.700647 0.367211 0.0551146
123 1 0.811423 0.38966 0.0637381
108 1 0.255061 0.433818 0.0610761
405 1 0.618783 0.00285227 0.368673
127 1 0.943283 0.377323 0.0628009
1051 1 0.813086 0.494212 0.0597548
622 1 0.438774 0.435043 0.497323
22 1 0.6929 0.0601165 0.0105934
5 1 0.186193 0.000148522 0.0703334
492 1 0.251718 0.374673 0.488567
53 1 0.628683 0.12859 0.00251713
629 1 0.626654 0.384159 0.4948
24 1 0.628666 0.0695645 0.0574611
277 1 0.614237 0.00178207 0.2402
499 1 0.554293 0.374217 0.436777
8 1 0.129023 0.0604253 0.0691162
12 1 0.240217 0.0775046 0.0751983
11 1 0.375796 0.0655622 0.0663849
20 1 0.509246 0.0625761 0.0615694
28 1 0.762803 0.0541417 0.0644422
32 1 0.883282 0.0548962 0.0691648
4 1 0.00843473 0.0445935 0.0610286
35 1 0.0730429 0.123757 0.070068
39 1 0.17884 0.131857 0.0594174
51 1 0.564174 0.123948 0.066519
55 1 0.690047 0.12378 0.055401
59 1 0.819646 0.117842 0.0629643
161 1 0.945237 0.116107 0.0656469
40 1 0.124226 0.187151 0.058601
44 1 0.176429 0.193412 0.12152
43 1 0.238636 0.188284 0.0589326
48 1 0.373242 0.18407 0.0559438
56 1 0.629386 0.188968 0.0638348
60 1 0.756946 0.1849 0.058887
63 1 0.882984 0.184785 0.0584019
197 1 0.124474 0.256416 0.115219
75 1 0.325087 0.250158 0.0701067
79 1 0.428371 0.257752 0.0513428
87 1 0.688363 0.250955 0.0501609
91 1 0.818196 0.236316 0.0586775
36 1 0.943074 0.246303 0.060505
198 1 0.194122 0.315991 0.120765
202 1 0.318797 0.305538 0.130518
80 1 0.374233 0.317315 0.0658272
84 1 0.494455 0.310749 0.0561543
88 1 0.637061 0.31351 0.0576729
92 1 0.757254 0.308334 0.0497624
96 1 0.868143 0.30505 0.0536717
222 1 0.945345 0.309714 0.118323
99 1 0.0707643 0.373507 0.0639301
233 1 0.256505 0.368562 0.120964
111 1 0.423956 0.381941 0.0638577
115 1 0.568235 0.373025 0.0655
112 1 0.37257 0.441272 0.0640749
116 1 0.513407 0.442882 0.0607993
120 1 0.644182 0.43929 0.0658218
124 1 0.751286 0.441632 0.0488677
128 1 0.876329 0.441027 0.0632818
100 1 0.991173 0.439316 0.0580137
230 1 0.134109 0.433761 0.0632523
621 1 0.377244 0.378147 0.486458
117 1 0.628366 0.370649 0.000685416
1029 1 0.135716 0.491722 0.00909008
101 1 0.138723 0.374367 0.00448299
1439 1 0.938309 0.495318 0.437163
150 1 0.699753 0.0608315 0.120303
154 1 0.818194 0.0619467 0.122767
130 1 0.0625356 0.05234 0.119079
134 1 0.180271 0.0665706 0.133602
138 1 0.310144 0.0614743 0.124711
142 1 0.436614 0.0628358 0.126586
146 1 0.572731 0.0573531 0.116073
158 1 0.948507 0.0538007 0.122475
163 1 0.00931675 0.123261 0.123057
165 1 0.126291 0.135807 0.132171
169 1 0.244836 0.140989 0.129152
173 1 0.376405 0.140072 0.125468
177 1 0.490645 0.123695 0.117407
181 1 0.626937 0.121551 0.126187
185 1 0.752938 0.128909 0.112471
189 1 0.87845 0.12205 0.118193
168 1 0.0620584 0.184785 0.137317
170 1 0.314495 0.193476 0.128004
174 1 0.444995 0.189049 0.122657
178 1 0.553791 0.19836 0.114583
182 1 0.688579 0.183725 0.124015
186 1 0.811436 0.185678 0.118421
190 1 0.937286 0.177371 0.120287
95 1 0.0014534 0.247406 0.120324
166 1 0.245863 0.246667 0.128423
203 1 0.313801 0.261624 0.199698
205 1 0.386646 0.253653 0.121265
209 1 0.496788 0.253292 0.132721
213 1 0.618528 0.256436 0.126012
217 1 0.758092 0.247319 0.118882
64 1 0.874008 0.23398 0.123467
194 1 0.0625699 0.315286 0.11993
206 1 0.445776 0.316953 0.121988
210 1 0.559785 0.307457 0.119079
214 1 0.68857 0.315807 0.120102
218 1 0.819288 0.299663 0.120638
229 1 0.128149 0.364253 0.120894
237 1 0.378146 0.370566 0.121576
241 1 0.498122 0.373298 0.120681
245 1 0.623001 0.38473 0.132259
249 1 0.748146 0.381444 0.125032
253 1 0.877851 0.367349 0.109439
225 1 0.00499883 0.380423 0.122225
226 1 0.0643481 0.436372 0.121385
236 1 0.194956 0.439798 0.123707
234 1 0.3135 0.436316 0.136099
238 1 0.432843 0.443872 0.114109
242 1 0.570968 0.449257 0.122422
246 1 0.689195 0.443889 0.133507
250 1 0.813642 0.441954 0.12281
254 1 0.939304 0.446842 0.123252
145 1 0.498542 0.0115851 0.122241
553 1 0.241374 0.109367 0.490611
530 1 0.549958 0.0589621 0.495158
1031 1 0.192056 0.495587 0.0706063
1287 1 0.183368 0.498444 0.309598
1161 1 0.260685 0.495078 0.117901
152 1 0.631328 0.0583738 0.190276
463 1 0.43621 0.247682 0.432988
514 1 -0.00129411 0.129968 0.494725
136 1 0.127238 0.0563281 0.191839
140 1 0.247917 0.0650973 0.186966
144 1 0.362967 0.0568999 0.181565
148 1 0.489996 0.0607807 0.1835
156 1 0.754694 0.056664 0.199955
160 1 0.880573 0.06886 0.174367
132 1 0.00667706 0.0610565 0.179121
1256 1 0.0615094 0.116914 0.185127
167 1 0.192659 0.128333 0.188445
171 1 0.314935 0.122319 0.177122
175 1 0.435834 0.119799 0.187272
179 1 0.570782 0.121046 0.180931
183 1 0.684522 0.122783 0.190236
187 1 0.817505 0.116321 0.182264
191 1 0.948558 0.119261 0.173573
294 1 0.122413 0.204803 0.187814
172 1 0.245946 0.202099 0.200814
176 1 0.381466 0.188701 0.192128
180 1 0.501099 0.18816 0.185474
184 1 0.611968 0.188562 0.177784
188 1 0.755371 0.189489 0.171747
192 1 0.877609 0.183519 0.186762
164 1 -0.00118359 0.18066 0.18806
193 1 0.064619 0.258578 0.18291
199 1 0.186938 0.254056 0.191086
207 1 0.435279 0.249955 0.186995
211 1 0.559584 0.257419 0.189376
215 1 0.67897 0.257255 0.181663
219 1 0.811908 0.245729 0.180135
221 1 0.933995 0.250382 0.174149
200 1 0.123977 0.321196 0.186961
201 1 0.244657 0.316524 0.195392
208 1 0.379864 0.317876 0.182023
212 1 0.490509 0.311482 0.187412
216 1 0.623239 0.320324 0.181794
220 1 0.760929 0.30951 0.182479
224 1 0.878926 0.314105 0.177515
196 1 0.993638 0.311394 0.179801
227 1 0.0543562 0.369774 0.190368
231 1 0.18707 0.371995 0.17648
204 1 0.307932 0.370163 0.196713
239 1 0.438956 0.38555 0.173897
243 1 0.558192 0.370479 0.181896
247 1 0.690848 0.375111 0.18897
251 1 0.816668 0.37463 0.173341
255 1 0.933426 0.372891 0.166534
228 1 0.991997 0.441446 0.184907
232 1 0.121243 0.427404 0.182854
240 1 0.376695 0.447055 0.179931
244 1 0.516291 0.440245 0.179241
252 1 0.758489 0.445167 0.192529
256 1 0.875737 0.451543 0.181102
566 1 0.673482 0.193785 0.497897
387 1 0.072364 0.00225654 0.443338
235 1 0.247758 0.442843 0.185174
444 1 0.732445 0.186321 0.442281
504 1 0.635032 0.439563 0.43151
248 1 0.616218 0.442051 0.188008
1035 1 0.315005 0.495583 0.056742
1165 1 0.373934 0.500022 0.117703
102 1 0.197827 0.438131 0.00203227
589 1 0.377372 0.24523 0.490131
537 1 0.752619 0.000762728 0.495935
282 1 0.816822 0.0518502 0.251012
1132 1 0.299784 0.0135318 0.0577164
258 1 0.0533076 0.056057 0.240562
262 1 0.18624 0.0607253 0.245583
266 1 0.306441 0.0633167 0.240574
270 1 0.422266 0.0628847 0.24865
274 1 0.568743 0.0653787 0.240929
278 1 0.686803 0.0659011 0.25726
286 1 0.934642 0.0547365 0.234495
293 1 0.110212 0.119486 0.259692
297 1 0.248004 0.136786 0.251428
303 1 0.368424 0.122059 0.236737
305 1 0.501003 0.126338 0.237427
309 1 0.619408 0.124208 0.247223
313 1 0.751705 0.133091 0.239065
317 1 0.870339 0.125048 0.245076
289 1 0.994779 0.114437 0.241241
290 1 0.0632364 0.192552 0.243155
325 1 0.171834 0.189886 0.251559
298 1 0.310395 0.194668 0.246168
301 1 0.439487 0.178253 0.253558
306 1 0.561669 0.187461 0.245857
310 1 0.684 0.203871 0.244706
314 1 0.816991 0.19208 0.238581
318 1 0.939059 0.178838 0.24409
195 1 0.123385 0.262916 0.262733
329 1 0.247434 0.257406 0.258754
333 1 0.377703 0.255069 0.255913
337 1 0.485451 0.259726 0.248918
341 1 0.619754 0.262346 0.2406
345 1 0.752386 0.250149 0.244643
349 1 0.879864 0.248006 0.237592
223 1 0.996413 0.244835 0.250089
322 1 0.0584814 0.307179 0.25071
326 1 0.185549 0.313256 0.263987
330 1 0.317461 0.319473 0.264609
334 1 0.433102 0.336668 0.24042
338 1 0.55843 0.31294 0.254295
342 1 0.696797 0.308789 0.243747
346 1 0.820153 0.314544 0.240122
350 1 0.938213 0.31173 0.25252
353 1 0.991244 0.373182 0.249726
357 1 0.123883 0.369259 0.254451
361 1 0.231741 0.386574 0.252099
365 1 0.368804 0.387997 0.252401
369 1 0.500644 0.37605 0.257014
373 1 0.63079 0.376492 0.245163
377 1 0.756255 0.37722 0.251321
381 1 0.8817 0.383562 0.247864
354 1 0.0656263 0.426489 0.245939
358 1 0.171169 0.436685 0.259224
362 1 0.317686 0.446903 0.241645
366 1 0.43586 0.427119 0.250441
382 1 0.940805 0.44061 0.248481
618 1 0.305488 0.434023 0.497054
557 1 0.367685 0.124314 0.499712
15 1 0.430969 0.00524148 0.0609026
370 1 0.561176 0.435193 0.250036
374 1 0.680486 0.449573 0.248227
378 1 0.817412 0.440762 0.252289
73 1 0.257752 0.242872 0.00287887
637 1 0.877762 0.380791 0.494587
141 1 0.374279 0.00150851 0.121101
389 1 0.110067 0.000878128 0.371127
521 1 0.251812 0.000606067 0.500171
288 1 0.867468 0.0662676 0.317488
273 1 0.491883 0.0115739 0.258122
264 1 0.1232 0.0546763 0.302032
268 1 0.243151 0.0569417 0.308913
272 1 0.364187 0.0674684 0.303891
276 1 0.511877 0.0777135 0.30237
280 1 0.617507 0.0709135 0.310609
284 1 0.741507 0.0636645 0.316234
260 1 0.9925 0.051002 0.322923
291 1 0.0420063 0.11427 0.306318
295 1 0.185598 0.128481 0.307277
299 1 0.301035 0.113283 0.312604
433 1 0.438295 0.121533 0.310693
307 1 0.567842 0.137654 0.311894
311 1 0.692441 0.133348 0.313399
315 1 0.809756 0.129115 0.298347
319 1 0.931114 0.111527 0.301352
296 1 0.118342 0.185338 0.311673
300 1 0.256302 0.195525 0.305857
304 1 0.374878 0.177256 0.302021
302 1 0.502574 0.183971 0.304291
312 1 0.625506 0.194758 0.299462
316 1 0.752498 0.187095 0.297622
320 1 0.88017 0.187788 0.296935
292 1 0.993449 0.185707 0.311499
323 1 0.053207 0.252282 0.310111
327 1 0.187171 0.245359 0.311104
331 1 0.311102 0.251717 0.310042
335 1 0.445431 0.244085 0.316094
339 1 0.561096 0.245477 0.300866
343 1 0.69695 0.256819 0.306541
347 1 0.813947 0.247281 0.309137
351 1 0.930021 0.247508 0.304715
324 1 0.99912 0.316618 0.311993
328 1 0.113857 0.318106 0.321895
332 1 0.248692 0.318168 0.31724
336 1 0.39262 0.311387 0.310679
340 1 0.503086 0.302856 0.315418
344 1 0.629738 0.309263 0.309538
348 1 0.751663 0.313263 0.310483
352 1 0.872614 0.305689 0.301559
355 1 0.0497006 0.379278 0.309374
359 1 0.182941 0.370368 0.31995
363 1 0.298762 0.385437 0.312245
367 1 0.440641 0.380035 0.315747
371 1 0.565954 0.369749 0.313447
375 1 0.690709 0.381115 0.306805
379 1 0.820152 0.360273 0.312872
383 1 0.935499 0.373708 0.307716
356 1 0.996931 0.440491 0.299484
360 1 0.111719 0.440946 0.317699
364 1 0.246567 0.451253 0.307595
368 1 0.378672 0.456954 0.313209
376 1 0.622675 0.44814 0.30649
380 1 0.748661 0.446907 0.299529
155 1 0.824761 0.00413868 0.181835
143 1 0.431461 0.000801206 0.194846
104 1 0.0703465 0.496829 0.064745
372 1 0.510445 0.438211 0.311518
561 1 0.494186 0.115367 0.486543
384 1 0.878208 0.436575 0.306069
50 1 0.565809 0.189511 0.00709547
133 1 0.125308 0.00234333 0.124695
74 1 0.31645 0.318848 0.00153011
503 1 0.693664 0.377866 0.443729
403 1 0.55955 0.00768207 0.425294
410 1 0.808775 0.0697544 0.375393
401 1 0.494344 0.0132635 0.359608
522 1 0.318539 0.049884 0.497496
386 1 0.0490258 0.0701187 0.378201
390 1 0.182793 0.0585333 0.364309
394 1 0.316717 0.0605679 0.385001
398 1 0.429563 0.0633124 0.378398
402 1 0.565502 0.0732059 0.37315
406 1 0.679804 0.0582761 0.367658
414 1 0.934636 0.0718018 0.376456
417 1 0.997255 0.135095 0.373307
421 1 0.111896 0.117016 0.354729
425 1 0.24461 0.126359 0.369391
429 1 0.370448 0.123257 0.371932
308 1 0.496475 0.124976 0.374407
437 1 0.627725 0.128139 0.364409
441 1 0.750709 0.133035 0.372782
445 1 0.869016 0.135178 0.374388
321 1 0.060152 0.186649 0.370227
422 1 0.185663 0.186717 0.371683
426 1 0.311794 0.189548 0.365667
430 1 0.435781 0.178981 0.367527
434 1 0.555821 0.188956 0.37437
438 1 0.6796 0.200541 0.365493
442 1 0.801483 0.198255 0.374269
446 1 0.933896 0.184111 0.369163
449 1 0.988197 0.248619 0.360826
453 1 0.125202 0.240619 0.369297
457 1 0.253843 0.253487 0.381543
461 1 0.376188 0.257811 0.370635
465 1 0.505744 0.252652 0.380544
469 1 0.609867 0.247236 0.366305
473 1 0.742161 0.247855 0.381933
477 1 0.862633 0.257966 0.384175
450 1 0.0536225 0.304726 0.380271
454 1 0.180687 0.308867 0.373672
458 1 0.310677 0.317212 0.372802
462 1 0.447025 0.310326 0.379031
466 1 0.563384 0.311096 0.37274
470 1 0.688087 0.321091 0.364784
474 1 0.80378 0.314349 0.378009
478 1 0.929129 0.310562 0.36921
485 1 0.0980865 0.373756 0.380218
489 1 0.250593 0.375097 0.378555
493 1 0.393013 0.376005 0.381592
497 1 0.502429 0.379349 0.366823
501 1 0.620636 0.375129 0.379724
505 1 0.755301 0.375932 0.376418
509 1 0.8781 0.370862 0.375229
481 1 0.994535 0.393155 0.373944
482 1 0.060978 0.450204 0.384248
486 1 0.180002 0.445548 0.378322
490 1 0.320799 0.44382 0.372954
498 1 0.562768 0.435809 0.379864
502 1 0.696254 0.435946 0.367696
137 1 0.245028 0.00671155 0.125956
110 1 0.433813 0.445366 0.00346321
494 1 0.441995 0.441568 0.365369
506 1 0.808701 0.438261 0.375342
510 1 0.924601 0.435795 0.378994
21 1 0.620377 0.00995773 0.00258064
541 1 0.870043 0.0158744 0.493833
404 1 0.491854 0.0503893 0.431495
1155 1 0.0700023 0.498121 0.185357
388 1 0.00628923 0.068986 0.441811
392 1 0.130074 0.056655 0.434743
396 1 0.253629 0.0437368 0.431019
400 1 0.377434 0.0632226 0.444001
408 1 0.62863 0.0574105 0.438504
412 1 0.743879 0.072353 0.443841
416 1 0.867794 0.0737515 0.434718
418 1 0.0624456 0.129299 0.434384
423 1 0.188053 0.111164 0.432879
427 1 0.305892 0.120068 0.43734
431 1 0.435016 0.125036 0.434086
435 1 0.559364 0.130325 0.435253
439 1 0.680825 0.123587 0.425976
443 1 0.802865 0.131353 0.434093
447 1 0.930136 0.126502 0.435202
420 1 0.999783 0.187361 0.436922
424 1 0.120584 0.190674 0.434385
428 1 0.256367 0.187967 0.427327
432 1 0.371545 0.181989 0.427952
436 1 0.505235 0.187493 0.437657
440 1 0.62625 0.190145 0.427202
448 1 0.862868 0.197054 0.441611
451 1 0.0543313 0.242614 0.4456
455 1 0.18343 0.245725 0.434471
467 1 0.560864 0.248115 0.442257
471 1 0.667058 0.257649 0.427862
475 1 0.803198 0.254867 0.44025
479 1 0.932605 0.244376 0.440712
452 1 0.987296 0.30051 0.433511
456 1 0.12087 0.308631 0.434832
460 1 0.257084 0.309185 0.43886
464 1 0.373756 0.317121 0.437472
468 1 0.506022 0.308063 0.438237
472 1 0.613618 0.311111 0.45411
476 1 0.737662 0.29962 0.437595
480 1 0.879075 0.314767 0.43298
483 1 0.0386707 0.362675 0.434068
487 1 0.191958 0.381382 0.43311
491 1 0.313765 0.368935 0.436543
495 1 0.443776 0.378013 0.438689
507 1 0.818768 0.377055 0.434303
511 1 0.940109 0.371561 0.431558
488 1 0.12309 0.436569 0.435757
1417 1 0.250739 0.443785 0.427854
496 1 0.375252 0.452063 0.440499
508 1 0.757637 0.432413 0.435257
512 1 0.863609 0.452229 0.431546
484 1 0.999006 0.433282 0.438649
558 1 0.444342 0.178889 0.492224
1177 1 0.749851 0.494553 0.115097
549 1 0.128734 0.124681 0.484814
459 1 0.313006 0.245343 0.439448
94 1 0.9328 0.311499 0.0026303
17 1 0.490983 0.00714261 0.00333107
1557 1 0.628324 0.493808 0.493163
602 1 0.819344 0.318872 0.491508
415 1 0.944567 0.0123549 0.439688
582 1 0.122872 0.24761 0.490742
610 1 0.0637337 0.432835 0.49039
6 1 0.19027 0.0656957 0.00808832
526 1 0.436875 0.053098 0.494313
578 1 0.0666484 0.311941 0.492411
269 1 0.368229 0.00466152 0.245121
617 1 0.195975 0.308551 0.489807
66 1 0.0697258 0.314759 0.00436671
113 1 0.482555 0.377582 0.00870455
411 1 0.810534 0.0140492 0.433871
554 1 0.311647 0.180775 0.490939
613 1 0.120488 0.37006 0.484802
33 1 0.0110059 0.112886 0.00161745
37 1 0.122732 0.116808 0.00716555
82 1 0.556904 0.313695 0.0010675
105 1 0.246081 0.365508 0.00743694
590 1 0.438336 0.308507 0.488253
1167 1 0.446043 0.500105 0.169699
409 1 0.750526 0.00720051 0.375767
513 1 0.00235378 0.00477429 0.492099
267 1 0.310838 0.00361993 0.306788
614 1 0.175998 0.431215 0.494506
1285 1 0.127356 0.497415 0.250754
65 1 0.996243 0.242231 0.00452136
257 1 0.995691 -3.86099e-05 0.243381
565 1 0.624247 0.128261 0.489432
62 1 0.943713 0.174686 -0.000287419
49 1 0.499815 0.122569 0.00764137
626 1 0.559726 0.439005 0.48223
1537 1 0.00515801 0.496874 0.492969
69 1 0.117978 0.245185 0.00530091
45 1 0.373937 0.116696 0.00139756
1541 1 0.121646 0.496668 0.500309
265 1 0.246014 0.00161677 0.253363
1153 1 0.0139601 0.498075 0.129028
1419 1 0.309041 0.499981 0.434071
1037 1 0.36826 0.498901 0.00146405
625 1 0.496506 0.374933 0.498284
598 1 0.687575 0.312278 0.497951
1041 1 0.504259 0.500871 0.00318297
98 1 0.0701736 0.436336 0.00125693
1033 1 0.250443 0.497199 0.0038264
546 1 0.0744236 0.184857 0.496443
534 1 0.683732 0.0753201 0.494425
114 1 0.566245 0.439383 0.00506292
642 1 0.125683 0.0627966 0.56671
34 1 0.0611342 0.177365 0.991622
518 1 0.179945 0.0558956 0.505142
1665 1 0.993502 0.498798 0.626476
661 1 0.626685 0.00510335 0.623967
10 1 0.298925 0.0701391 0.99494
528 1 0.376639 0.0578094 0.557833
121 1 0.750059 0.382252 0.990678
1939 1 0.564148 0.49622 0.942605
669 1 0.872915 0.00192805 0.61375
653 1 0.386504 -0.000149956 0.618824
559 1 0.434212 0.118655 0.547707
563 1 0.565291 0.124955 0.570543
605 1 0.865363 0.255915 0.507677
781 1 0.373339 0.00317066 0.746395
520 1 0.0636364 0.0101931 0.570912
564 1 0.4967 0.173529 0.550424
1667 1 0.0746617 0.497085 0.693183
917 1 0.620682 3.35616e-05 0.873992
647 1 0.246885 0.000757218 0.753074
1823 1 0.929335 0.494994 0.813881
591 1 0.429461 0.236454 0.554601
584 1 0.139509 0.31849 0.551539
90 1 0.807649 0.327269 0.98823
600 1 0.624171 0.31621 0.55424
608 1 0.869974 0.310944 0.567221
1551 1 0.447613 0.497374 0.562087
2 1 0.0630174 0.0449097 0.995659
1691 1 0.815409 0.485127 0.680634
769 1 0.995224 0.000566445 0.745803
109 1 0.37212 0.387298 0.996412
635 1 0.822936 0.378976 0.565585
639 1 0.938268 0.374065 0.559086
42 1 0.313729 0.183046 0.99916
640 1 0.875655 0.437902 0.559246
543 1 0.930675 0.00366886 0.551584
905 1 0.25648 0.000633784 0.868805
586 1 0.313904 0.319386 0.498767
634 1 0.80946 0.451584 0.503071
659 1 0.57158 0.00208038 0.693936
577 1 0.991937 0.256436 0.505872
1925 1 0.0730492 0.499755 0.811366
1949 1 0.872998 0.500047 0.876679
655 1 0.434512 0.0026874 0.687587
419 1 0.995789 0.0643897 0.551593
524 1 0.244503 0.055012 0.561365
532 1 0.507428 0.0684782 0.563474
536 1 0.619359 0.0525205 0.559183
540 1 0.745707 0.0651193 0.556893
544 1 0.872386 0.0694121 0.560551
547 1 0.0618868 0.123438 0.564695
551 1 0.188664 0.116218 0.560733
555 1 0.308714 0.120724 0.551871
567 1 0.666787 0.12536 0.560017
571 1 0.809748 0.132898 0.565805
545 1 0.929955 0.128978 0.554523
581 1 0.122989 0.175976 0.56873
556 1 0.255196 0.190568 0.548761
560 1 0.370152 0.177041 0.560773
568 1 0.61545 0.188689 0.570368
572 1 0.753665 0.19063 0.563228
576 1 0.871368 0.196355 0.565642
673 1 0.998777 0.187773 0.550596
579 1 0.059462 0.255063 0.564142
583 1 0.194262 0.242341 0.547045
587 1 0.313996 0.26127 0.563838
595 1 0.548021 0.238156 0.566231
599 1 0.679677 0.246138 0.556797
603 1 0.801783 0.255734 0.563485
607 1 0.931884 0.25237 0.565026
580 1 0.00639692 0.311772 0.560969
588 1 0.251239 0.312722 0.567108
592 1 0.384912 0.313553 0.562783
596 1 0.492477 0.300244 0.558783
604 1 0.750345 0.317549 0.555582
611 1 0.0602461 0.372346 0.549423
615 1 0.194858 0.373877 0.55388
619 1 0.312096 0.377377 0.567403
623 1 0.426327 0.380205 0.556938
627 1 0.571221 0.375045 0.54577
631 1 0.687083 0.374016 0.551465
765 1 0.883365 0.383194 0.623627
616 1 0.125363 0.441243 0.556848
624 1 0.379435 0.450325 0.566192
628 1 0.505713 0.429926 0.559679
632 1 0.620299 0.436173 0.564539
636 1 0.751301 0.439884 0.560922
612 1 0.998435 0.438616 0.556461
620 1 0.240868 0.435783 0.571652
1815 1 0.683813 0.491977 0.800094
1025 1 0.99603 0.496 0.997652
909 1 0.374028 -1.69905e-05 0.867762
915 1 0.554348 0.00645854 0.952869
795 1 0.821423 0.00838833 0.813191
18 1 0.570356 0.0691439 0.996424
13 1 0.361809 0.0114912 0.999258
677 1 0.0653653 0.0641764 0.629484
646 1 0.186837 0.0601596 0.619294
650 1 0.314207 0.0492656 0.615096
654 1 0.445287 0.0581262 0.629133
658 1 0.56955 0.0651229 0.628557
662 1 0.679499 0.0738719 0.623093
666 1 0.814054 0.0701049 0.62094
670 1 0.939731 0.0637176 0.614341
552 1 0.128851 0.116333 0.630797
681 1 0.252775 0.117582 0.614153
685 1 0.386641 0.11446 0.618383
689 1 0.499648 0.119825 0.625111
693 1 0.623974 0.133009 0.635933
697 1 0.741682 0.127791 0.620268
701 1 0.867875 0.130155 0.622442
516 1 0.999684 0.1203 0.613224
674 1 0.0668936 0.182802 0.62216
678 1 0.191103 0.182856 0.613071
682 1 0.307636 0.184117 0.616768
686 1 0.441745 0.188928 0.620458
690 1 0.558118 0.188786 0.639941
694 1 0.683618 0.187928 0.626933
698 1 0.806528 0.192272 0.627363
548 1 0.932187 0.194697 0.619999
705 1 0.994701 0.245457 0.61646
709 1 0.124768 0.248475 0.60432
713 1 0.254705 0.24717 0.616113
717 1 0.372969 0.251341 0.616782
721 1 0.499832 0.248275 0.632278
725 1 0.619132 0.257473 0.611609
729 1 0.741333 0.254918 0.636553
733 1 0.868658 0.248275 0.627099
706 1 0.0781654 0.321911 0.620805
710 1 0.180716 0.304654 0.620661
714 1 0.316166 0.310633 0.641628
718 1 0.434763 0.312434 0.622433
722 1 0.561011 0.314479 0.609541
726 1 0.687626 0.314432 0.60892
730 1 0.799749 0.308464 0.633463
734 1 0.925923 0.313681 0.62681
741 1 0.138661 0.376275 0.610028
745 1 0.250972 0.368758 0.625724
749 1 0.373276 0.375573 0.621476
753 1 0.498911 0.373863 0.62916
757 1 0.62274 0.375986 0.617945
761 1 0.753232 0.374961 0.610662
737 1 0.00768889 0.380207 0.616327
738 1 0.0594355 0.454003 0.615431
742 1 0.193362 0.427812 0.641244
746 1 0.310184 0.438781 0.621188
750 1 0.443965 0.432297 0.626215
758 1 0.679877 0.444012 0.630484
762 1 0.813284 0.441553 0.613699
766 1 0.943099 0.441033 0.614807
754 1 0.554951 0.4402 0.628672
85 1 0.615914 0.250826 0.99279
1923 1 0.0576386 0.494242 0.930913
675 1 0.121998 0.0493575 0.688516
903 1 0.194891 0.00124324 0.930243
609 1 0.99389 0.368218 0.5052
644 1 0.998069 0.0668567 0.685259
652 1 0.256856 0.0627774 0.687333
656 1 0.375463 0.0557679 0.683708
660 1 0.502102 0.0594741 0.692836
664 1 0.630006 0.0602159 0.69032
668 1 0.756865 0.0659829 0.685947
703 1 0.883682 0.0730466 0.672858
575 1 0.0590181 0.119319 0.687095
679 1 0.190216 0.113958 0.687208
683 1 0.317431 0.119812 0.680675
687 1 0.42811 0.118751 0.690151
691 1 0.563506 0.120061 0.694676
695 1 0.687675 0.118823 0.689172
699 1 0.815538 0.130873 0.683269
702 1 0.941622 0.130511 0.675042
676 1 0.994769 0.189143 0.680406
680 1 0.123549 0.191819 0.684962
684 1 0.254988 0.186686 0.683596
688 1 0.372126 0.184506 0.666828
692 1 0.491917 0.184666 0.681391
696 1 0.614018 0.18724 0.701026
700 1 0.753751 0.191834 0.685702
704 1 0.874444 0.189063 0.683518
707 1 0.0576614 0.245032 0.669493
711 1 0.19005 0.235689 0.678861
715 1 0.310359 0.241322 0.679657
719 1 0.432161 0.252176 0.679538
723 1 0.563527 0.258714 0.682094
727 1 0.666987 0.253785 0.688242
731 1 0.810755 0.252731 0.687534
735 1 0.93304 0.247044 0.684903
708 1 0.00490087 0.30284 0.671095
712 1 0.13219 0.306928 0.68528
716 1 0.2447 0.298236 0.676285
720 1 0.384271 0.318218 0.692598
724 1 0.500544 0.30961 0.683716
728 1 0.612634 0.320524 0.6811
732 1 0.744143 0.319098 0.690317
736 1 0.876731 0.303893 0.696147
739 1 0.0528847 0.382238 0.681049
743 1 0.190572 0.358678 0.679121
751 1 0.439554 0.374757 0.692291
755 1 0.557869 0.378291 0.684402
759 1 0.679403 0.369643 0.687304
763 1 0.812552 0.370954 0.683515
767 1 0.944612 0.379218 0.678366
744 1 0.123863 0.423566 0.691693
747 1 0.315353 0.376518 0.688286
752 1 0.374152 0.446889 0.686473
756 1 0.490796 0.436257 0.688738
764 1 0.752277 0.430286 0.673194
768 1 0.890893 0.448576 0.683241
740 1 0.00947528 0.451575 0.687436
26 1 0.823967 0.0620748 0.995028
748 1 0.246989 0.441411 0.702345
1555 1 0.566505 0.492936 0.550882
760 1 0.620101 0.437048 0.689959
118 1 0.689747 0.435795 0.994236
570 1 0.81161 0.189182 0.500264
786 1 0.570583 0.0605734 0.75265
790 1 0.6941 0.0577993 0.748243
770 1 0.0672599 0.0487124 0.753513
774 1 0.177557 0.061912 0.748675
778 1 0.316097 0.0652439 0.748316
782 1 0.439439 0.0618561 0.753746
821 1 0.626539 0.117186 0.752908
794 1 0.803806 0.0537883 0.747159
797 1 0.937928 0.0623013 0.76091
805 1 0.120087 0.121482 0.748237
809 1 0.261931 0.1334 0.74785
813 1 0.373681 0.117594 0.747605
817 1 0.491159 0.125706 0.739911
825 1 0.764494 0.124612 0.74487
829 1 0.884367 0.119554 0.739693
801 1 0.0043521 0.1242 0.748042
802 1 0.06773 0.185618 0.750601
806 1 0.188038 0.193416 0.751904
810 1 0.31853 0.192724 0.746158
814 1 0.427858 0.188256 0.747269
818 1 0.560439 0.179007 0.760188
822 1 0.693421 0.183711 0.737917
826 1 0.813319 0.187801 0.756893
830 1 0.939608 0.188271 0.755555
837 1 0.118479 0.244528 0.757259
841 1 0.253717 0.248802 0.752248
845 1 0.371219 0.25828 0.743179
849 1 0.51074 0.239407 0.741956
853 1 0.619171 0.242862 0.751719
857 1 0.753372 0.254988 0.746721
861 1 0.876078 0.238833 0.747169
833 1 0.000104565 0.242269 0.738847
834 1 0.0625533 0.309926 0.73444
838 1 0.193288 0.309695 0.748803
842 1 0.312188 0.311361 0.736225
846 1 0.447197 0.311764 0.744779
850 1 0.560071 0.315171 0.748567
854 1 0.693678 0.311959 0.756699
858 1 0.810666 0.313361 0.743053
862 1 0.952801 0.306142 0.735133
869 1 0.127376 0.362797 0.756236
873 1 0.248913 0.366773 0.740873
877 1 0.378639 0.388295 0.747017
881 1 0.499799 0.379114 0.743785
885 1 0.637652 0.375085 0.763162
889 1 0.753437 0.381004 0.746643
893 1 0.882645 0.382156 0.737593
865 1 0.998012 0.371413 0.736033
866 1 0.0645243 0.422874 0.754274
870 1 0.185166 0.425913 0.751106
878 1 0.440201 0.447607 0.749922
882 1 0.556626 0.445474 0.745374
886 1 0.696904 0.439898 0.732776
890 1 0.818742 0.430642 0.748568
894 1 0.937061 0.437829 0.745418
874 1 0.319411 0.441028 0.753174
527 1 0.448218 0.00444635 0.561358
777 1 0.31272 0.00428941 0.802922
776 1 0.128717 0.0552717 0.810933
780 1 0.242603 0.0670887 0.801925
788 1 0.491687 0.0611934 0.81483
1547 1 0.29271 0.496202 0.564238
1821 1 0.880508 0.49553 0.753358
807 1 0.17402 0.123651 0.808139
784 1 0.370929 0.0626344 0.81121
792 1 0.644749 0.0467856 0.809788
796 1 0.755194 0.0662389 0.821336
798 1 0.883388 0.0697643 0.819286
772 1 0.00858715 0.0575807 0.815169
803 1 0.059842 0.118507 0.807121
811 1 0.31533 0.122653 0.803234
815 1 0.428712 0.125626 0.809545
819 1 0.562758 0.128926 0.819653
823 1 0.691446 0.114293 0.806055
827 1 0.815384 0.125974 0.825344
831 1 0.949077 0.126343 0.8157
804 1 0.00699266 0.188562 0.81078
808 1 0.118698 0.186052 0.814127
812 1 0.262913 0.182551 0.814771
816 1 0.392481 0.198194 0.824828
820 1 0.483228 0.195317 0.803275
824 1 0.635196 0.188294 0.808109
828 1 0.73635 0.185194 0.808417
832 1 0.879032 0.172929 0.813307
835 1 0.062004 0.248585 0.812977
839 1 0.184429 0.258497 0.810472
843 1 0.320831 0.259335 0.803722
847 1 0.424903 0.26455 0.806627
851 1 0.566909 0.253868 0.813582
855 1 0.690126 0.253902 0.812034
859 1 0.815044 0.252566 0.810941
863 1 0.932431 0.243 0.820364
836 1 0.998817 0.301667 0.816068
840 1 0.119615 0.314593 0.819558
844 1 0.252453 0.310202 0.815225
848 1 0.369242 0.323334 0.792225
852 1 0.502009 0.296272 0.802835
856 1 0.633714 0.311099 0.815431
860 1 0.753865 0.308727 0.813987
864 1 0.875985 0.305302 0.794249
867 1 0.0512432 0.358945 0.811455
871 1 0.192779 0.371889 0.813808
879 1 0.43018 0.374025 0.815001
883 1 0.553647 0.387409 0.809576
887 1 0.693932 0.364655 0.817813
891 1 0.80515 0.37374 0.807672
895 1 0.93219 0.381048 0.8043
868 1 1.00057 0.438158 0.804885
872 1 0.131563 0.425225 0.813058
875 1 0.316549 0.381121 0.812106
880 1 0.377648 0.441973 0.812242
884 1 0.496864 0.446383 0.80822
888 1 0.617852 0.434853 0.811259
892 1 0.757939 0.438061 0.804692
896 1 0.871863 0.434751 0.808033
785 1 0.497539 0.00327194 0.750204
876 1 0.260059 0.43897 0.805563
106 1 0.308025 0.435379 0.993558
902 1 0.183028 0.0569455 0.871455
122 1 0.815176 0.435916 0.991551
918 1 0.695085 0.0557631 0.882001
601 1 0.747197 0.249988 0.50262
1927 1 0.190936 0.498982 0.94014
898 1 0.0693144 0.0564064 0.869899
906 1 0.319241 0.0686087 0.868809
910 1 0.435601 0.0599378 0.877059
914 1 0.562808 0.0590626 0.873589
949 1 0.631727 0.102783 0.862444
922 1 0.812789 0.0610981 0.881252
800 1 0.947831 0.0635397 0.873168
933 1 0.119893 0.120973 0.867146
937 1 0.236215 0.120873 0.860085
941 1 0.382076 0.124476 0.880793
945 1 0.492244 0.128183 0.87755
953 1 0.748359 0.122948 0.879141
957 1 0.883016 0.112603 0.884308
929 1 0.0110257 0.119184 0.877041
930 1 0.0649262 0.184544 0.871343
934 1 0.177026 0.182925 0.866558
938 1 0.328404 0.181357 0.872359
942 1 0.44628 0.194639 0.887433
946 1 0.565722 0.193344 0.883315
950 1 0.686842 0.173686 0.877133
954 1 0.800559 0.191342 0.866588
958 1 0.936063 0.178103 0.87356
961 1 0.00235261 0.254117 0.876693
965 1 0.116094 0.25323 0.876074
969 1 0.256684 0.24205 0.863549
973 1 0.373504 0.255276 0.876068
977 1 0.507867 0.249974 0.874803
985 1 0.753568 0.256521 0.876887
989 1 0.87119 0.245414 0.874671
962 1 0.0514623 0.316652 0.888721
966 1 0.18075 0.305621 0.880736
970 1 0.314006 0.306957 0.886322
974 1 0.448335 0.309248 0.866815
978 1 0.552117 0.317436 0.862539
982 1 0.689519 0.311825 0.871763
986 1 0.816957 0.307846 0.870639
990 1 0.936133 0.309057 0.868509
993 1 0.989929 0.374465 0.858602
997 1 0.119186 0.370919 0.874311
1001 1 0.256088 0.38278 0.872665
1005 1 0.380345 0.388334 0.874287
1009 1 0.483264 0.389106 0.871243