ITEM: TIMESTEP
100000
ITEM: NUMBER OF ATOMS
2048
ITEM: BOX BOUNDS pp pp pp
0.0000000000000000e+00 1.1093780389610155e+01
0.0000000000000000e+00 1.1093780389610155e+01
0.0000000000000000e+00 1.1093780389610155e+01
ITEM: ATOMS id type xs ys zs
114 1 0.562055 0.439802 0.000334433
597 1 0.62526 0.247081 0.501541
281 1 0.75102 -0.000101629 0.24309
24 1 0.625989 0.0668342 0.0642465
32 1 0.879233 0.0618962 0.0675245
135 1 0.187203 0.0049728 0.191139
8 1 0.132192 0.0613194 0.063036
1425 1 0.496834 0.49986 0.37737
43 1 0.315044 0.121429 0.0601698
1409 1 0.00705686 0.500038 0.376082
606 1 0.937586 0.311105 0.499394
59 1 0.814749 0.125927 0.0655065
63 1 0.940338 0.124066 0.0636749
1295 1 0.438863 0.499729 0.312295
387 1 0.06354 0.00422478 0.437717
594 1 0.559092 0.310116 0.500762
36 1 0.00435787 0.185913 0.0602593
67 1 0.0678194 0.249741 0.0629061
40 1 0.125298 0.185048 0.0614642
48 1 0.37738 0.185532 0.0605151
413 1 0.875661 0.00158502 0.372071
411 1 0.815462 0.00108917 0.438346
56 1 0.629448 0.187438 0.0627282
1153 1 0.000585006 0.500416 0.122048
64 1 0.870988 0.188635 0.0644097
1301 1 0.62806 0.499036 0.255835
58 1 0.811877 0.186405 8.67601e-05
19 1 0.563505 0.00311133 0.0618085
80 1 0.369302 0.316002 0.0667967
573 1 0.876398 0.125542 0.500587
87 1 0.685363 0.248989 0.0628552
257 1 0.00693652 -0.00032142 0.252326
46 1 0.438154 0.18831 -0.000180436
72 1 0.124808 0.313775 0.0633998
283 1 0.813504 0.0025204 0.310135
76 1 0.251186 0.311076 0.062704
78 1 0.440184 0.315644 0.000441944
92 1 0.753312 0.315251 0.0602193
96 1 0.87197 0.310146 0.0609143
101 1 0.125946 0.368449 -0.00175324
277 1 0.626155 -0.00222042 0.251089
112 1 0.371238 0.442442 0.0624415
1163 1 0.307864 0.496029 0.189999
115 1 0.566186 0.37678 0.0597917
120 1 0.626929 0.440909 0.0624408
119 1 0.693197 0.378155 0.065285
123 1 0.812282 0.374545 0.0634441
128 1 0.874775 0.434474 0.0618868
100 1 -0.00134057 0.434822 0.0564864
1417 1 0.248089 0.502207 0.376314
1309 1 0.871901 0.498771 0.249984
108 1 0.249644 0.43885 0.0635011
287 1 0.940698 0.00319141 0.312697
41 1 0.252053 0.122219 0.00257406
116 1 0.500401 0.440287 0.062868
110 1 0.434843 0.440808 0.00517955
124 1 0.755402 0.436855 0.0647869
113 1 0.499784 0.379311 0.00354972
1287 1 0.188099 0.497453 0.314668
1297 1 0.50041 0.497248 0.247493
16 1 0.37871 0.0583319 0.0644842
20 1 0.500656 0.0645809 0.062761
25 1 0.751345 -0.00129461 -0.00254606
62 1 0.938115 0.187807 0.000851699
158 1 0.942322 0.0601439 0.126743
4 1 0.00250048 0.0656077 0.0679929
12 1 0.251842 0.0593917 0.0601594
47 1 0.441757 0.126301 0.0644325
51 1 0.565991 0.13056 0.0559188
28 1 0.756709 0.0628941 0.0657212
154 1 0.815429 0.0628436 0.12734
35 1 0.0660877 0.122528 0.0600069
162 1 0.0654816 0.188633 0.121695
39 1 0.188962 0.124322 0.0656137
44 1 0.251516 0.188804 0.0611586
169 1 0.251698 0.120646 0.12142
52 1 0.500307 0.192892 0.0606675
177 1 0.506148 0.12443 0.121743
55 1 0.693881 0.123664 0.0658717
60 1 0.747187 0.186242 0.0582316
71 1 0.18631 0.249079 0.0592989
79 1 0.43244 0.248851 0.0632489
178 1 0.567717 0.187512 0.122438
91 1 0.809089 0.25071 0.0593377
190 1 0.938647 0.187073 0.122183
95 1 0.939673 0.246283 0.0594423
68 1 0.00369496 0.309653 0.0607903
194 1 0.0640316 0.311422 0.125163
198 1 0.187866 0.311174 0.129365
201 1 0.251431 0.251848 0.12462
75 1 0.313862 0.251014 0.060996
83 1 0.560362 0.251788 0.0648861
213 1 0.62692 0.251598 0.127833
214 1 0.689621 0.312419 0.122427
217 1 0.74993 0.253251 0.120875
218 1 0.811084 0.310391 0.123441
222 1 0.941998 0.312191 0.118864
107 1 0.311471 0.377731 0.0626523
84 1 0.499122 0.314645 0.0653494
88 1 0.623736 0.310555 0.0616832
127 1 0.936572 0.377692 0.0616262
99 1 0.0654201 0.372987 0.0638108
104 1 0.12626 0.438166 0.0663566
103 1 0.188992 0.381003 0.0657693
233 1 0.250747 0.376061 0.124055
111 1 0.434606 0.375816 0.0632869
238 1 0.439626 0.439378 0.12253
241 1 0.503497 0.378128 0.121974
253 1 0.878689 0.374676 0.124634
226 1 0.0653078 0.439037 0.123762
496 1 0.376945 0.437802 0.437447
230 1 0.190033 0.437703 0.128198
234 1 0.312572 0.439021 0.124826
488 1 0.122943 0.442106 0.432192
250 1 0.811443 0.439489 0.121848
511 1 0.935908 0.372261 0.437156
17 1 0.502295 0.00243897 0.00177004
109 1 0.373552 0.377225 0.00388159
136 1 0.126785 0.0597897 0.186669
1291 1 0.312261 0.495636 0.311629
82 1 0.563955 0.319919 -0.00149248
144 1 0.376903 0.0662389 0.18646
146 1 0.567605 0.0626045 0.129138
150 1 0.693441 0.056549 0.126666
130 1 0.0646989 0.0609927 0.12773
134 1 0.189242 0.0635879 0.126751
138 1 0.317213 0.0649406 0.125716
173 1 0.375337 0.128531 0.123854
142 1 0.439721 0.0652606 0.124219
175 1 0.437063 0.125393 0.187391
148 1 0.505663 0.0588816 0.188804
181 1 0.62727 0.127069 0.125086
185 1 0.747809 0.130511 0.127445
156 1 0.751408 0.0635688 0.18596
187 1 0.814734 0.127784 0.187901
160 1 0.879608 0.0614442 0.185484
191 1 0.939651 0.124384 0.185261
161 1 0.00137592 0.125314 0.126061
163 1 0.0617257 0.128797 0.189319
165 1 0.123635 0.12478 0.126468
179 1 0.565695 0.123612 0.189617
182 1 0.689497 0.18928 0.125061
186 1 0.809956 0.190245 0.126576
189 1 0.876326 0.124154 0.125194
192 1 0.874232 0.192959 0.188929
193 1 -0.000655607 0.248614 0.120184
195 1 0.0632688 0.251211 0.18548
168 1 0.128964 0.187035 0.185731
166 1 0.195975 0.187991 0.123504
170 1 0.311062 0.186782 0.122467
174 1 0.437545 0.185865 0.127467
180 1 0.502381 0.191593 0.190163
221 1 0.874856 0.252485 0.124108
223 1 0.937704 0.250578 0.187809
164 1 0.998757 0.188263 0.188952
196 1 1.001 0.31444 0.184637
197 1 0.131826 0.247859 0.124878
205 1 0.375889 0.244828 0.126851
209 1 0.496416 0.251169 0.126747
211 1 0.561317 0.25034 0.184461
215 1 0.687076 0.248062 0.189929
219 1 0.806789 0.2493 0.18919
225 1 1.00193 0.37604 0.120136
229 1 0.128236 0.375655 0.127355
231 1 0.187758 0.37392 0.190594
202 1 0.309098 0.311602 0.12612
206 1 0.433493 0.311249 0.127257
212 1 0.499196 0.313572 0.187724
210 1 0.563544 0.314858 0.128606
245 1 0.623948 0.375635 0.125506
247 1 0.68778 0.378301 0.189854
220 1 0.742666 0.31837 0.186881
249 1 0.748549 0.375399 0.125975
224 1 0.876302 0.311276 0.187265
255 1 0.936446 0.375995 0.186254
227 1 0.0655858 0.37658 0.187562
235 1 0.311538 0.374351 0.189653
237 1 0.377933 0.379384 0.128696
242 1 0.562459 0.439522 0.124844
251 1 0.814316 0.37287 0.181076
503 1 0.686446 0.377676 0.439047
504 1 0.618333 0.435571 0.43863
57 1 0.750224 0.122407 0.00487855
240 1 0.378152 0.44231 0.184566
263 1 0.186259 -0.00202445 0.311552
246 1 0.683832 0.439298 0.126621
254 1 0.938865 0.436192 0.124498
132 1 0.00405458 0.0673476 0.186389
258 1 0.0650818 0.0665504 0.247157
621 1 0.371996 0.374401 0.502177
495 1 0.432641 0.37388 0.435144
270 1 0.439705 0.0657143 0.253496
152 1 0.628344 0.0639775 0.18718
483 1 0.0655954 0.378108 0.434987
14 1 0.439771 0.0681887 -0.00299646
286 1 0.940982 0.0618507 0.250183
293 1 0.127182 0.128001 0.248506
167 1 0.194852 0.125014 0.186674
262 1 0.187261 0.0657659 0.247792
140 1 0.252925 0.0596402 0.187899
266 1 0.312425 0.0626095 0.248279
305 1 0.502173 0.126254 0.2477
274 1 0.567035 0.064157 0.250008
183 1 0.690562 0.129564 0.191133
282 1 0.814189 0.0661558 0.250155
317 1 0.874362 0.125838 0.249469
289 1 0.997251 0.126694 0.253324
290 1 0.0606711 0.185481 0.252634
172 1 0.252824 0.189078 0.189613
171 1 0.310195 0.128191 0.183353
301 1 0.37192 0.127207 0.250134
184 1 0.62499 0.191521 0.187578
309 1 0.626097 0.124375 0.248762
310 1 0.685372 0.190275 0.252142
188 1 0.749514 0.189158 0.187137
318 1 0.93626 0.185722 0.250777
294 1 0.190505 0.191015 0.245773
203 1 0.315948 0.248316 0.185413
176 1 0.374134 0.187636 0.18758
207 1 0.436429 0.247384 0.188111
345 1 0.748204 0.245518 0.251827
314 1 0.813393 0.188113 0.249848
321 1 0.00399042 0.250405 0.247563
199 1 0.191083 0.247858 0.189187
326 1 0.188746 0.308635 0.250358
204 1 0.250008 0.310268 0.189868
330 1 0.313809 0.309562 0.251378
208 1 0.373012 0.305655 0.187034
334 1 0.435692 0.309803 0.247753
341 1 0.626057 0.250311 0.25253
216 1 0.627849 0.313609 0.189945
349 1 0.87469 0.252073 0.250482
353 1 0.00144323 0.377355 0.247386
200 1 0.127534 0.309599 0.186203
357 1 0.125386 0.379722 0.248869
239 1 0.438612 0.379445 0.18159
342 1 0.691239 0.310918 0.252917
228 1 -0.00107882 0.429987 0.183037
232 1 0.127236 0.437499 0.184736
358 1 0.188661 0.438935 0.25084
236 1 0.25092 0.435224 0.189282
362 1 0.311901 0.434662 0.251298
244 1 0.500539 0.442277 0.184707
243 1 0.566181 0.375277 0.185828
373 1 0.633181 0.378136 0.254387
256 1 0.873137 0.437954 0.184659
271 1 0.437748 0.00229873 0.315214
366 1 0.441021 0.43872 0.250519
370 1 0.564205 0.438706 0.250534
468 1 0.499398 0.310576 0.43383
248 1 0.625455 0.44201 0.185765
374 1 0.688304 0.438066 0.250831
252 1 0.750853 0.436919 0.184945
378 1 0.807904 0.437616 0.245664
141 1 0.380226 0.00315488 0.130097
155 1 0.818087 0.00107772 0.189077
276 1 0.501424 0.0655314 0.314933
280 1 0.631539 0.060605 0.311281
617 1 0.248757 0.374014 0.499651
260 1 1.00106 0.0652524 0.315308
264 1 0.122152 0.0671497 0.307005
297 1 0.251209 0.122063 0.248374
272 1 0.375369 0.0611356 0.309311
278 1 0.689524 0.0629588 0.250273
313 1 0.750881 0.128279 0.248156
288 1 0.879546 0.0663637 0.308791
319 1 0.938914 0.125725 0.318849
291 1 0.0642314 0.127335 0.311578
296 1 0.129639 0.183964 0.310582
295 1 0.192358 0.124154 0.31437
298 1 0.308655 0.184295 0.249936
302 1 0.435252 0.185107 0.249697
308 1 0.500218 0.18763 0.309466
307 1 0.559692 0.127041 0.313043
311 1 0.691211 0.127549 0.309437
320 1 0.872345 0.190351 0.313334
292 1 -0.00117082 0.190493 0.31355
323 1 0.0624744 0.252014 0.311708
325 1 0.125308 0.248199 0.248963
329 1 0.253901 0.250319 0.25329
333 1 0.373705 0.247667 0.253116
306 1 0.564973 0.188543 0.25017
312 1 0.626298 0.19039 0.313383
351 1 0.939709 0.25373 0.311351
322 1 0.0637959 0.313021 0.24654
332 1 0.251696 0.312353 0.312782
331 1 0.310388 0.249167 0.313784
337 1 0.498711 0.251872 0.250853
338 1 0.563437 0.315828 0.247182
324 1 0.00256935 0.313329 0.309655
355 1 0.0603677 0.377324 0.311606
359 1 0.185597 0.370861 0.3102
361 1 0.251392 0.373525 0.24993
363 1 0.315474 0.373982 0.309069
365 1 0.377511 0.374264 0.244692
377 1 0.748729 0.378377 0.252864
346 1 0.809405 0.311448 0.246858
381 1 0.874247 0.378965 0.248364
350 1 0.940748 0.314141 0.247158
354 1 0.0654941 0.437513 0.247795
360 1 0.124498 0.435467 0.311034
364 1 0.251314 0.435579 0.309884
369 1 0.499204 0.373632 0.247403
375 1 0.68751 0.374146 0.311175
382 1 0.936323 0.436904 0.247127
356 1 0.997308 0.437772 0.313856
372 1 0.499919 0.43875 0.311067
380 1 0.749345 0.440968 0.31375
464 1 0.369863 0.312434 0.435797
513 1 -0.000548737 0.00382369 0.496882
85 1 0.62148 0.250904 -0.00047592
398 1 0.435738 0.0643706 0.378761
284 1 0.751609 0.0587909 0.31018
491 1 0.308696 0.375058 0.442727
410 1 0.81483 0.0588309 0.371487
414 1 0.940294 0.0643076 0.374952
417 1 0.999915 0.126938 0.376371
386 1 0.0628028 0.0655597 0.374922
268 1 0.249845 0.0623153 0.311443
394 1 0.314625 0.0626858 0.374873
429 1 0.375113 0.127806 0.378754
303 1 0.43452 0.126597 0.314182
402 1 0.565359 0.0631513 0.377157
315 1 0.812488 0.129971 0.312738
300 1 0.248991 0.189153 0.315716
425 1 0.247942 0.121968 0.378767
299 1 0.308206 0.125978 0.314981
304 1 0.373668 0.185673 0.316742
437 1 0.624591 0.123903 0.372483
441 1 0.748354 0.124574 0.373999
442 1 0.807259 0.185076 0.374348
446 1 0.940363 0.186781 0.376908
327 1 0.185439 0.251165 0.313147
461 1 0.372054 0.251759 0.372397
339 1 0.562265 0.246937 0.317309
434 1 0.562847 0.186525 0.376909
316 1 0.746253 0.190486 0.31308
477 1 0.874721 0.248659 0.373813
450 1 0.0663652 0.315684 0.372376
328 1 0.123053 0.311335 0.31024
336 1 0.378756 0.318602 0.312927
335 1 0.436428 0.249108 0.315483
343 1 0.68771 0.255339 0.316095
347 1 0.811276 0.247429 0.310348
474 1 0.809879 0.315554 0.370234
352 1 0.869993 0.314574 0.309037
478 1 0.942472 0.317211 0.374012
485 1 0.125802 0.37619 0.373595
458 1 0.312371 0.3103 0.374072
340 1 0.501472 0.313815 0.308503
466 1 0.559223 0.314137 0.372136
344 1 0.620668 0.312018 0.311986
348 1 0.753649 0.313135 0.309027
481 1 -0.00249896 0.380974 0.376293
489 1 0.248414 0.373225 0.379211
490 1 0.30948 0.4356 0.370654
367 1 0.437064 0.377888 0.310361
371 1 0.56208 0.377398 0.31253
501 1 0.621657 0.37299 0.37427
505 1 0.747365 0.379589 0.375504
379 1 0.814176 0.379138 0.31216
383 1 0.934674 0.374549 0.310401
510 1 0.936714 0.440103 0.37902
482 1 0.0639808 0.43886 0.373555
261 1 0.122537 0.00232028 0.252896
486 1 0.187284 0.437834 0.374653
368 1 0.377268 0.437964 0.307674
494 1 0.438432 0.433882 0.37394
487 1 0.183955 0.375464 0.438775
376 1 0.624199 0.436673 0.3129
502 1 0.683026 0.436797 0.37414
506 1 0.809003 0.438873 0.375076
384 1 0.877242 0.439698 0.317119
456 1 0.125292 0.309448 0.440704
388 1 1.00056 0.0655475 0.436139
574 1 0.935205 0.190155 0.501663
408 1 0.630682 0.0606422 0.434603
412 1 0.748657 0.0636103 0.437099
419 1 0.0661839 0.127924 0.439802
421 1 0.123952 0.121081 0.37576
390 1 0.188951 0.0597659 0.374686
396 1 0.250122 0.0607016 0.437515
400 1 0.37261 0.0636707 0.438287
431 1 0.438025 0.126191 0.440713
404 1 0.500616 0.0612132 0.438069
406 1 0.690247 0.0604143 0.372782
443 1 0.811937 0.12342 0.441012
445 1 0.873934 0.12822 0.374705
447 1 0.935514 0.125476 0.435446
432 1 0.372941 0.186661 0.441455
433 1 0.499987 0.127805 0.377036
435 1 0.564291 0.122708 0.436778
439 1 0.688492 0.126466 0.437563
444 1 0.750513 0.187406 0.440854
448 1 0.871144 0.189448 0.435042
418 1 0.0636105 0.183025 0.377145
453 1 0.127217 0.249265 0.373923
422 1 0.187002 0.180124 0.375125
426 1 0.313204 0.188954 0.37987
430 1 0.436707 0.183573 0.37524
465 1 0.500513 0.250252 0.376195
440 1 0.628673 0.182442 0.437042
469 1 0.62247 0.250093 0.377073
438 1 0.689375 0.186603 0.374777
449 1 0.000890215 0.256062 0.377013
452 1 0.998818 0.314804 0.438826
457 1 0.248164 0.250855 0.374028
463 1 0.430956 0.256095 0.436727
462 1 0.440269 0.31679 0.375361
467 1 0.559445 0.25048 0.436747
471 1 0.683763 0.25029 0.443098
473 1 0.748009 0.250058 0.37803
475 1 0.808375 0.246715 0.435031
480 1 0.870896 0.307298 0.433085
454 1 0.184263 0.315041 0.373942
460 1 0.243304 0.312494 0.437637
472 1 0.624187 0.315648 0.436858
470 1 0.68861 0.317579 0.378244
476 1 0.749383 0.309406 0.438485
509 1 0.874635 0.374977 0.375552
484 1 0.995892 0.434849 0.43726
493 1 0.373729 0.382244 0.373487
497 1 0.498664 0.374121 0.370317
499 1 0.558805 0.371077 0.439134
508 1 0.750123 0.437445 0.435122
507 1 0.807716 0.371599 0.440541
512 1 0.876956 0.436406 0.436986
479 1 0.935283 0.250438 0.436232
492 1 0.251171 0.438788 0.436493
145 1 0.506105 7.3898e-05 0.125992
500 1 0.500956 0.434654 0.43439
498 1 0.562661 0.437822 0.373043
459 1 0.309087 0.254075 0.436905
1423 1 0.435957 0.500827 0.439076
275 1 0.562355 0.00426833 0.309365
1177 1 0.750865 0.49942 0.121078
614 1 0.188797 0.439573 0.495808
1161 1 0.249507 0.499919 0.127182
451 1 0.0646727 0.252584 0.439884
416 1 0.875022 0.0593969 0.437642
392 1 0.124541 0.0663219 0.436965
423 1 0.189752 0.128681 0.443664
1181 1 0.877919 0.499804 0.123087
455 1 0.186109 0.248216 0.436083
273 1 0.506437 0.00515395 0.250999
518 1 0.187707 0.0648806 0.503372
424 1 0.125863 0.188168 0.440433
428 1 0.252914 0.190561 0.437723
81 1 0.502014 0.253909 -0.00127217
427 1 0.31487 0.125735 0.438757
436 1 0.497792 0.188632 0.439741
420 1 0.994292 0.188758 0.439658
1431 1 0.682145 0.498247 0.433638
385 1 0.000316141 -0.00125514 0.376866
133 1 0.128192 -0.00152543 0.128002
393 1 0.248698 0.00102777 0.370393
74 1 0.312064 0.315934 0.00171337
1415 1 0.185538 0.502292 0.433785
530 1 0.568449 0.0618928 0.49965
15 1 0.437085 -0.00240086 0.0673927
542 1 0.935244 0.062457 0.500102
93 1 0.875432 0.247091 -0.000143951
391 1 0.184951 -0.00138429 0.438312
139 1 0.318665 0.00215533 0.186125
26 1 0.813401 0.0617322 0.00233325
1311 1 0.933976 0.501173 0.313597
1421 1 0.373666 0.497091 0.372309
625 1 0.497526 0.372147 0.497509
1307 1 0.811168 0.501862 0.311672
153 1 0.752749 0.00154323 0.124411
1183 1 0.939196 0.498805 0.18543
389 1 0.123932 0.00211584 0.376509
1283 1 0.0623531 0.499464 0.30786
1027 1 0.0611498 0.497427 0.0637748
143 1 0.438678 0.00590271 0.193918
267 1 0.312242 -0.00152152 0.310642
1305 1 0.747181 0.50068 0.249282
1419 1 0.314392 0.499032 0.436253
582 1 0.187458 0.313199 0.502636
401 1 0.504587 0.00457274 0.371684
566 1 0.688428 0.184492 0.504454
22 1 0.690198 0.062498 -0.000128868
613 1 0.124797 0.379883 0.499565
105 1 0.247868 0.37358 -0.000326677
633 1 0.747773 0.375989 0.499965
38 1 0.186928 0.184916 -0.0011125
1049 1 0.748738 0.495991 -0.000228711
121 1 0.751188 0.377999 0.00120844
637 1 0.870072 0.37816 0.497113
30 1 0.939997 0.0611079 0.00430377
634 1 0.809853 0.442733 0.497607
610 1 0.06026 0.43641 0.498397
65 1 0.00380676 0.248066 0.00190744
117 1 0.62866 0.377109 0.00187539
1 1 0.999483 0.00215329 0.00401496
49 1 0.500604 0.129785 0.00196979
70 1 0.18764 0.314035 0.00533708
42 1 0.311353 0.185357 0.0031587
565 1 0.628262 0.123579 0.500724
94 1 0.936197 0.307645 0.00605896
593 1 0.495828 0.252829 0.495339
558 1 0.435537 0.191171 0.498515
61 1 0.880543 0.123778 0.00364668
89 1 0.748938 0.251326 0.000960326
122 1 0.814742 0.434095 0.000527278
545 1 0.998303 0.128103 0.499446
1681 1 0.503278 0.497081 0.631605
570 1 0.811524 0.185013 0.503524
1029 1 0.122364 0.498986 0.999239
1665 1 0.996877 0.495255 0.622362
791 1 0.685761 -0.00126203 0.814179
915 1 0.563071 0.00198664 0.940068
601 1 0.752774 0.251287 0.499614
1805 1 0.374139 0.4996 0.750198
515 1 0.0583538 0.00409209 0.561822
54 1 0.688377 0.190149 0.999442
1811 1 0.565124 0.493313 0.811334
524 1 0.249768 0.0628421 0.563479
555 1 0.313304 0.128834 0.563725
1543 1 0.193393 0.49783 0.562162
532 1 0.503401 0.0601865 0.561771
563 1 0.565141 0.122129 0.564874
536 1 0.627456 0.0594748 0.568847
575 1 0.935218 0.130156 0.561417
547 1 0.0590127 0.125186 0.564277
779 1 0.315942 0.00128428 0.815114
562 1 0.565079 0.18601 0.496855
567 1 0.688023 0.125125 0.565129
572 1 0.749911 0.187956 0.563164
571 1 0.809913 0.124913 0.563801
1947 1 0.811716 0.499226 0.936371
45 1 0.376852 0.125547 1.00029
921 1 0.748598 -0.00114089 0.876921
521 1 0.246455 -0.000650579 0.49791
556 1 0.2497 0.189513 0.561818
1555 1 0.558483 0.497921 0.561867
554 1 0.314384 0.189146 0.500989
564 1 0.501106 0.184805 0.562635
568 1 0.627274 0.188179 0.560963
599 1 0.685229 0.251137 0.56109
630 1 0.686622 0.435654 0.497446
548 1 -0.00409947 0.190432 0.562475
1799 1 0.185331 0.497863 0.812875
583 1 0.189564 0.251078 0.561682
588 1 0.246501 0.310893 0.565781
587 1 0.309047 0.250842 0.564861
592 1 0.376032 0.316474 0.563257
595 1 0.55773 0.247378 0.557263
789 1 0.622754 0.000863796 0.747573
604 1 0.755346 0.314558 0.562469
1671 1 0.186479 0.502111 0.688581
919 1 0.688652 -0.0016598 0.93929
523 1 0.311809 -0.00147686 0.564555
655 1 0.440083 0.000253063 0.681893
569 1 0.749334 0.123878 0.500131
118 1 0.68888 0.438832 1.0024
535 1 0.69275 5.16325e-05 0.559251
1793 1 1.00038 0.493846 0.751904
1925 1 0.125813 0.500723 0.875175
615 1 0.189014 0.373883 0.565376
777 1 0.250984 0.000372148 0.746392
627 1 0.557527 0.370958 0.564321
1933 1 0.373625 0.497721 0.879692
1025 1 0.998484 0.499422 0.996684
1667 1 0.0638167 0.496635 0.685865
640 1 0.873027 0.434606 0.564235
639 1 0.9373 0.36987 0.561478
1563 1 0.813081 0.500165 0.562336
6 1 0.187858 0.0612181 1.00242
1669 1 0.126192 0.497569 0.623106
629 1 0.622266 0.373775 0.502984
106 1 0.30714 0.443316 0.999446
1567 1 0.934283 0.496626 0.56318
37 1 0.125268 0.117542 0.993075
1012 1 0.499096 0.44223 0.939776
917 1 0.623846 -0.000588818 0.878228
642 1 0.0612817 0.0625843 0.627525
520 1 0.122295 0.0618015 0.563843
1693 1 0.871814 0.500408 0.62534
650 1 0.313624 0.0582293 0.622297
609 1 0.998464 0.376056 0.498887
654 1 0.438535 0.0619672 0.6251
1024 1 0.873248 0.437151 0.933517
553 1 0.24884 0.127713 0.501435
544 1 0.874684 0.0683327 0.563898
1937 1 0.499227 0.499983 0.879198
551 1 0.188033 0.120756 0.564619
646 1 0.18778 0.0592987 0.623756
528 1 0.373845 0.0625525 0.563748
658 1 0.561289 0.054169 0.628064
662 1 0.687918 0.0607367 0.627588
540 1 0.751315 0.0626621 0.564614
516 1 0.996239 0.0673038 0.559722
681 1 0.248397 0.124661 0.624353
560 1 0.374535 0.186217 0.560077
559 1 0.439921 0.120398 0.562781
693 1 0.625746 0.12473 0.62787
701 1 0.87078 0.123219 0.627173
673 1 0.999419 0.124463 0.625595
579 1 0.0598301 0.250973 0.566431
674 1 0.0588081 0.189191 0.629171
552 1 0.129423 0.184686 0.561423
591 1 0.43985 0.24722 0.561136
690 1 0.561672 0.190422 0.621321
729 1 0.748634 0.255959 0.621212
603 1 0.809973 0.253792 0.560022
576 1 0.872494 0.190848 0.565564
607 1 0.9397 0.249132 0.563889
713 1 0.251009 0.252401 0.629937
600 1 0.621047 0.310497 0.566243
725 1 0.627599 0.243304 0.62088
726 1 0.683099 0.313484 0.625717
608 1 0.8773 0.311723 0.560903
733 1 0.872932 0.250351 0.626817
584 1 0.124797 0.311962 0.563116
623 1 0.436523 0.376209 0.564067
596 1 0.500265 0.307551 0.563169
631 1 0.683483 0.374094 0.55703
761 1 0.750999 0.376305 0.62519
580 1 0.998223 0.309662 0.560127
611 1 0.0614276 0.375637 0.563124
745 1 0.253122 0.372829 0.623142
620 1 0.249117 0.432163 0.562474
619 1 0.309456 0.37051 0.559893
624 1 0.376666 0.437171 0.565193
750 1 0.440246 0.436263 0.627212
628 1 0.498694 0.442688 0.563553
632 1 0.622548 0.436788 0.567595
635 1 0.813142 0.372923 0.560823
616 1 0.125859 0.435742 0.562529
102 1 0.185263 0.438454 0.999975
979 1 0.561882 0.252613 0.934809
1927 1 0.189429 0.497099 0.936846
758 1 0.686507 0.434666 0.625193
636 1 0.746482 0.436964 0.563478
762 1 0.812975 0.434062 0.623916
766 1 0.934924 0.434965 0.624132
612 1 -0.00204304 0.435515 0.562766
652 1 0.247846 0.0617744 0.685139
967 1 0.190911 0.250583 0.939636
675 1 0.0627843 0.130567 0.686253
679 1 0.187169 0.124664 0.68682
685 1 0.377518 0.126862 0.62596
660 1 0.503242 0.0604224 0.690749
664 1 0.620908 0.0613936 0.68925
668 1 0.748404 0.0586678 0.686752
666 1 0.810286 0.0607804 0.624133
670 1 0.937606 0.061913 0.621041
644 1 0.999338 0.0670699 0.686553
677 1 0.125881 0.122523 0.62618
678 1 0.188846 0.181431 0.621346
686 1 0.43827 0.186872 0.62718
689 1 0.502304 0.120132 0.623889
697 1 0.749159 0.128534 0.624895
704 1 0.875426 0.184607 0.68705
702 1 0.939782 0.188432 0.623637
676 1 0.996152 0.190658 0.687267
680 1 0.131076 0.18426 0.687467
682 1 0.310523 0.191881 0.624947
717 1 0.376254 0.247482 0.617195
694 1 0.689718 0.189318 0.62539
727 1 0.688156 0.251042 0.685802
698 1 0.812939 0.187752 0.625318
735 1 0.932554 0.246746 0.686645
707 1 0.0646121 0.249822 0.685839
709 1 0.123594 0.245696 0.623975
710 1 0.185541 0.312146 0.623413
721 1 0.497689 0.246032 0.624943
730 1 0.813308 0.311537 0.623548
734 1 0.936191 0.315431 0.627279
705 1 1.00112 0.251643 0.62867
706 1 0.0587544 0.312925 0.625166
714 1 0.316013 0.31073 0.625122
747 1 0.314136 0.375119 0.68774
718 1 0.433563 0.311481 0.625309
753 1 0.499156 0.369884 0.62429
722 1 0.560466 0.30409 0.627588
757 1 0.616944 0.377783 0.623816
759 1 0.688744 0.375767 0.688137
765 1 0.875273 0.371758 0.625892
741 1 0.126572 0.372982 0.624859
743 1 0.184349 0.376594 0.683709
746 1 0.310694 0.437303 0.627461
749 1 0.376161 0.373649 0.629246
754 1 0.558575 0.436299 0.62537
764 1 0.749883 0.438462 0.68712
737 1 0.998494 0.372285 0.625817
740 1 0.00310003 0.436948 0.690806
738 1 0.0622483 0.43634 0.625748
744 1 0.125253 0.43564 0.684947
1677 1 0.369307 0.496471 0.626453
742 1 0.192186 0.439003 0.625676
752 1 0.371204 0.437641 0.688105
638 1 0.935711 0.436938 0.499599
539 1 0.812039 -0.000384501 0.562206
69 1 0.125589 0.250472 1.0006
1935 1 0.439496 0.500376 0.93641
943 1 0.443683 0.129589 0.938227
648 1 0.124533 0.0634013 0.68902
774 1 0.185494 0.0618635 0.750169
939 1 0.312693 0.12268 0.940968
778 1 0.315378 0.0618545 0.743809
656 1 0.37515 0.0651745 0.682137
782 1 0.441343 0.0631137 0.74907
775 1 0.185694 -0.00384504 0.810749
786 1 0.561617 0.0649277 0.750768
794 1 0.820009 0.0594392 0.753601
98 1 0.0637416 0.433176 1.00014
770 1 0.0616157 0.060479 0.747245
809 1 0.248379 0.120238 0.749993
683 1 0.311865 0.127767 0.68144
687 1 0.4389 0.124994 0.686755
691 1 0.565745 0.122621 0.686039
821 1 0.628033 0.122755 0.751232
699 1 0.811127 0.12448 0.687913
672 1 0.878206 0.0607403 0.681133
703 1 0.935644 0.123647 0.686124
805 1 0.120157 0.123895 0.750116
684 1 0.245695 0.187658 0.689258
688 1 0.374139 0.188816 0.68552
818 1 0.564895 0.187146 0.749208
696 1 0.629523 0.186199 0.688923
695 1 0.686852 0.122253 0.688841
700 1 0.75613 0.184697 0.691405
802 1 0.0635394 0.1865 0.752263
715 1 0.312474 0.250321 0.689479
692 1 0.497813 0.185723 0.685268
723 1 0.567874 0.244772 0.687582
857 1 0.747687 0.249548 0.749876
731 1 0.810766 0.248698 0.688745
826 1 0.815826 0.184196 0.753807
861 1 0.87285 0.24934 0.75391
708 1 1.00005 0.313038 0.691574
837 1 0.127618 0.249951 0.753683
711 1 0.184215 0.247497 0.688535
716 1 0.246769 0.313792 0.68655
720 1 0.375281 0.310347 0.687415
719 1 0.439029 0.251483 0.68947
849 1 0.498736 0.249384 0.753463
728 1 0.623811 0.311598 0.686933
854 1 0.688043 0.309189 0.752532
732 1 0.749298 0.312047 0.688654
858 1 0.813546 0.311097 0.751777
736 1 0.872502 0.310411 0.68956
865 1 -0.00019424 0.374354 0.753488
712 1 0.126038 0.310737 0.685878
751 1 0.434441 0.375763 0.686751
724 1 0.497206 0.309177 0.687307
850 1 0.563061 0.307555 0.750401
763 1 0.810822 0.377498 0.686913
767 1 0.935179 0.380539 0.693051
739 1 0.0604716 0.373328 0.689866
866 1 0.0626978 0.436708 0.755454
870 1 0.18414 0.441402 0.750418
755 1 0.562439 0.370705 0.689517
760 1 0.623352 0.43461 0.68583
885 1 0.628418 0.371595 0.747556
886 1 0.687239 0.43468 0.750255
768 1 0.873611 0.438204 0.689207
1003 1 0.314463 0.375408 0.943034
771 1 0.0649059 0.00141755 0.810057
748 1 0.251141 0.43562 0.690363
1004 1 0.246972 0.435672 0.935488
756 1 0.500963 0.426497 0.686571
924 1 0.75314 0.0606176 0.938155
890 1 0.808649 0.439139 0.753403
904 1 0.125602 0.0578409 0.932566
781 1 0.378594 0.00688544 0.749119
788 1 0.500966 0.0636579 0.814466
963 1 0.0610685 0.246479 0.933319
86 1 0.686445 0.313492 1.00178
800 1 0.877813 0.0599642 0.813419
798 1 0.939762 0.0634172 0.750936
801 1 0.99926 0.124917 0.750205
780 1 0.250575 0.0593474 0.810877
813 1 0.374295 0.122912 0.747527
817 1 0.503507 0.126387 0.745813
819 1 0.56353 0.125696 0.814535
792 1 0.625521 0.0628765 0.813423
790 1 0.685581 0.0625963 0.752762
825 1 0.751448 0.121655 0.752445
827 1 0.81634 0.122078 0.819521
829 1 0.879108 0.12309 0.750056
810 1 0.310144 0.1856 0.749536
814 1 0.437394 0.192153 0.747276
824 1 0.628483 0.183909 0.808877
823 1 0.690042 0.119749 0.813057
822 1 0.693128 0.185655 0.750112
833 1 0.000757842 0.251198 0.747386
804 1 0.995254 0.189477 0.810378
806 1 0.183146 0.187554 0.75233
841 1 0.247209 0.249624 0.751446
845 1 0.378549 0.249374 0.748384
853 1 0.629647 0.248884 0.754652
855 1 0.687246 0.247767 0.814294
832 1 0.874909 0.188829 0.813
830 1 0.9331 0.187281 0.751221
834 1 0.0661949 0.308373 0.749807
839 1 0.184629 0.249259 0.815527
842 1 0.313144 0.313184 0.748245
846 1 0.437744 0.311063 0.752155
851 1 0.566003 0.248113 0.808594
862 1 0.934645 0.309832 0.748103
838 1 0.185226 0.317669 0.748087
844 1 0.250958 0.309762 0.811386
873 1 0.249199 0.376713 0.752639
877 1 0.374782 0.375126 0.749986
881 1 0.498647 0.374423 0.752276
856 1 0.625199 0.313204 0.811531
891 1 0.812322 0.373162 0.814361
893 1 0.872549 0.37721 0.756917
895 1 0.938531 0.369954 0.816284
836 1 1.00105 0.311829 0.814857
869 1 0.126182 0.376406 0.748198
874 1 0.310648 0.43555 0.752957
878 1 0.432341 0.438737 0.74997
883 1 0.560077 0.379937 0.809421
888 1 0.629355 0.433361 0.809991
887 1 0.686262 0.37407 0.811814
889 1 0.749175 0.373796 0.752061
894 1 0.93551 0.437403 0.753017
872 1 0.126174 0.43717 0.815651
968 1 0.119886 0.30893 0.935628
882 1 0.560144 0.433925 0.745446
896 1 0.874699 0.440731 0.816439
799 1 0.938556 6.01183e-05 0.811944
772 1 0.0025204 0.06161 0.812105
898 1 0.061975 0.0602617 0.875148
902 1 0.188395 0.0611898 0.872786
784 1 0.37501 0.0635933 0.814027
910 1 0.436155 0.0642629 0.878105
918 1 0.68734 0.0590477 0.87726
796 1 0.750934 0.0621262 0.814844
922 1 0.8157 0.0613702 0.879229
926 1 0.938902 0.0632079 0.874213
929 1 0.00464301 0.126111 0.871021
803 1 0.0617054 0.125129 0.810971
776 1 0.126854 0.0590432 0.811733
933 1 0.126237 0.124677 0.875181
811 1 0.309813 0.124658 0.812695
807 1 0.189853 0.126622 0.815349
812 1 0.246648 0.188062 0.811024
816 1 0.372359 0.181605 0.81015
815 1 0.437015 0.126145 0.807964
946 1 0.562522 0.18831 0.874849
828 1 0.75042 0.183144 0.814007
954 1 0.813297 0.183104 0.87673
831 1 0.935014 0.123074 0.811036
808 1 0.124316 0.183679 0.813603
934 1 0.185612 0.185704 0.8769
843 1 0.315529 0.247913 0.80984
847 1 0.432558 0.248703 0.812037
820 1 0.50278 0.185434 0.811313
977 1 0.498156 0.249468 0.871074
981 1 0.623653 0.248584 0.873101
950 1 0.689535 0.186728 0.875837
863 1 0.936079 0.24885 0.813238
835 1 0.059248 0.248476 0.815306
840 1 0.128159 0.316257 0.812958
848 1 0.378401 0.314219 0.815597
982 1 0.683767 0.31105 0.871955
860 1 0.748011 0.310551 0.813008
985 1 0.749514 0.252905 0.874283
859 1 0.811099 0.245118 0.815318
864 1 0.875681 0.3122 0.813253
867 1 0.0651921 0.373591 0.816877
871 1 0.186954 0.374776 0.814894
875 1 0.313801 0.366749 0.81501
879 1 0.44035 0.378126 0.811887
852 1 0.502109 0.312326 0.811365
978 1 0.560537 0.311978 0.870556
990 1 0.938267 0.309592 0.880459
993 1 0.996373 0.375455 0.875054
868 1 0.997661 0.437826 0.814961
1005 1 0.378865 0.374177 0.875738
1009 1 0.502295 0.380774 0.878348
1010 1 0.565008 0.439201 0.877248
1013 1 0.622833 0.375239 0.874328
892 1 0.749723 0.437155 0.811868
1018 1 0.812571 0.435021 0.875224
1022 1 0.934108 0.440626 0.878252
1023 1 0.938819 0.370874 0.940737
998 1 0.187543 0.434748 0.876376
876 1 0.251027 0.438306 0.812793
1002 1 0.312984 0.431946 0.878413
880 1 0.369781 0.438201 0.813512
884 1 0.500163 0.440777 0.811708
645 1 0.12411 0.00149467 0.623322
920 1 0.624729 0.0635743 0.937566
785 1 0.500726 0.00337555 0.749032
951 1 0.695792 0.123649 0.940223
641 1 1.00304 0.00140688 0.626885
908 1 0.253147 0.0619337 0.937564
906 1 0.312534 0.0622846 0.874943
1019 1 0.809235 0.371526 0.936202