ITEM: TIMESTEP
100000
ITEM: NUMBER OF ATOMS
2048
ITEM: BOX BOUNDS pp pp pp
0.0000000000000000e+00 1.3153131063095840e+01
0.0000000000000000e+00 1.3153131063095840e+01
0.0000000000000000e+00 1.3153131063095840e+01
ITEM: ATOMS id type xs ys zs
264 1 0.164525 0.247581 0.0538932
445 1 0.497372 0.975671 0.44612
1915 1 0.122467 0.385879 0.218441
839 1 0.252637 0.850749 0.406237
2047 1 0.310275 0.941204 0.0740664
1238 1 0.40469 0.547182 0.165536
1230 1 0.219883 0.179922 0.160567
1832 1 0.388487 0.45982 0.107306
840 1 0.0473803 0.603792 0.166943
2022 1 0.476025 0.642283 0.189174
1316 1 0.049204 0.355927 0.0677616
1858 1 0.394489 0.137217 0.461715
496 1 0.192753 0.166493 0.0611833
789 1 0.471648 0.501967 0.0468963
1167 1 0.0469267 0.0308197 0.0578417
163 1 0.0141179 0.647344 0.32175
2040 1 0.190055 0.871836 0.444218
733 1 0.0412057 0.303471 0.115812
1246 1 0.296481 0.142641 0.173441
1583 1 0.413954 0.0813257 0.184093
1818 1 0.438895 0.926685 0.392406
1391 1 0.435608 0.59579 0.34452
322 1 0.0919993 0.834302 0.283837
1752 1 0.221313 0.394937 0.0104016
693 1 0.474331 0.339591 0.313635
1287 1 0.0491074 0.14745 0.370419
1495 1 0.260753 0.88322 0.485809
297 1 0.172959 0.463826 0.228796
185 1 0.452548 0.847631 0.496272
1639 1 0.241448 0.693299 0.249614
1375 1 0.390885 0.977221 0.369917
1875 1 0.120074 0.164777 0.0117648
80 1 0.270699 0.55521 0.186573
800 1 0.152259 0.57974 0.0849266
99 1 0.0920969 0.408672 0.0333364
374 1 0.0511339 0.735195 0.100013
1791 1 0.0118756 0.627304 0.0289107
622 1 0.476052 0.258594 0.490594
1276 1 0.41132 0.490615 0.225188
1528 1 0.400516 0.284899 0.118854
1136 1 0.219224 0.319576 0.00991983
986 1 0.078909 0.703 0.310838
950 1 0.493653 0.563168 0.383092
1576 1 0.425953 0.398415 0.144442
1248 1 0.468104 0.69322 0.250355
1189 1 0.217506 0.990725 0.371372
372 1 0.148032 0.165906 0.13225
1998 1 0.440646 0.313251 0.468942
586 1 0.423204 0.270856 0.278627
625 1 0.205309 0.52344 0.0467738
1792 1 0.335537 0.96596 0.462515
1513 1 0.143006 0.939163 0.424441
207 1 0.0609757 0.984886 0.14096
249 1 0.454226 0.838422 0.352558
785 1 0.147152 0.910987 0.499457
337 1 0.118431 0.929231 0.144429
964 1 0.0164998 0.638049 0.107148
33 1 0.453194 0.904636 0.229695
1709 1 -0.00215698 0.787085 0.207008
1978 1 0.313035 0.0812702 0.0247588
787 1 0.375412 0.157502 0.170582
1388 1 0.133087 0.823747 0.0583579
1455 1 0.0775266 0.372805 0.154777
66 1 0.274354 0.107749 0.0862351
1205 1 0.387487 0.102552 0.0965718
885 1 0.260005 0.00837069 0.277129
932 1 0.42956 0.755396 0.477692
1705 1 0.321743 0.110009 0.346395
289 1 0.0635266 0.759883 0.176691
1146 1 0.0472132 0.409688 0.353165
654 1 0.115662 0.209905 0.180762
1394 1 0.0356377 0.233977 0.448042
767 1 -0.00109901 0.20749 0.372878
498 1 0.36407 0.193666 0.235934
790 1 0.446605 0.218611 0.13323
985 1 0.147445 1.00036 0.347556
694 1 0.489523 0.872121 0.438239
1938 1 0.247682 0.585102 0.0504641
1106 1 0.377892 0.424836 0.492699
1764 1 0.177467 0.442828 0.0390172
2011 1 0.31427 0.0259495 0.333103
1981 1 0.0783769 0.14412 0.0982912
201 1 0.212567 0.659751 0.335628
191 1 0.168911 0.887484 0.0934068
532 1 0.203048 0.38282 0.116125
852 1 0.472633 0.666432 0.101255
54 1 0.191717 0.0935651 0.0375179
1484 1 0.249181 0.617771 0.233646
192 1 0.469337 0.474217 0.33874
506 1 0.466226 0.324777 0.143228
2024 1 0.376608 0.748021 0.22706
1055 1 0.282637 0.901721 0.210234
2025 1 0.423241 0.228357 0.441059
774 1 0.0136702 0.0763338 0.447701
63 1 0.243144 0.253539 0.0264516
817 1 0.0759636 0.674506 0.0561293
1237 1 0.136807 0.667034 0.19821
59 1 0.049031 0.156603 0.02918
1614 1 0.190093 0.763314 0.436358
1221 1 0.304019 0.883541 0.32734
735 1 0.119961 0.715616 0.148573
1174 1 0.115484 0.435193 0.153364
1034 1 0.460115 0.171874 -0.000124888
977 1 0.132448 0.171889 0.351974
1157 1 0.308033 0.559388 0.268184
1453 1 0.0518334 0.871708 0.0390609
2045 1 0.36524 0.68555 0.060501
318 1 0.207944 0.856551 0.178328
404 1 0.100444 0.358872 0.378887
450 1 0.278683 0.51679 0.0602177
876 1 0.487963 0.0134659 0.199584
449 1 0.0559995 0.0752425 0.387655
1672 1 0.212779 0.106849 0.178702
483 1 0.324086 0.0261315 0.109398
1478 1 0.455496 0.152889 0.413588
1138 1 0.368831 0.00894324 0.172349
538 1 0.0131302 0.130202 0.152327
1982 1 0.0585149 0.885559 0.134457
499 1 0.312328 0.302275 0.0264971
27 1 0.331127 0.180454 0.108487
1338 1 0.084811 0.562519 0.0463808
1191 1 0.0359806 0.328613 0.225505
56 1 0.0692066 0.231862 0.0407491
1907 1 0.0830563 0.321594 0.310927
416 1 0.284481 0.187273 0.278932
539 1 0.276979 0.363724 0.0495098
1970 1 0.334665 0.325897 0.339437
247 1 0.243997 0.317737 0.110298
401 1 0.269304 0.402891 0.284699
170 1 0.462612 0.285366 0.0755996
896 1 0.299518 0.437256 0.0638486
1948 1 0.122282 0.49647 0.0363589
1569 1 0.0960085 0.531797 0.378131
772 1 0.0466397 0.415453 0.208447
1869 1 0.338033 0.589285 0.173261
1169 1 0.0976745 0.816115 0.121809
1225 1 0.0551677 0.674086 0.157015
1886 1 0.0788184 0.917038 0.20184
963 1 0.431357 0.727731 0.0970089
1746 1 0.42572 0.684909 0.419715
834 1 0.410063 0.128638 0.33621
1616 1 0.355077 0.612881 0.315713
1180 1 0.0137243 0.86696 0.393532
1570 1 0.37993 0.525836 0.062723
1811 1 0.0849077 0.760074 0.471595
656 1 0.322108 0.671196 0.117755
1202 1 0.403472 0.922976 0.125868
2020 1 0.0361106 0.936343 0.281984
341 1 0.476157 0.65123 0.318834
1827 1 0.268496 0.79978 0.0194673
902 1 0.152742 0.604269 0.0150077
751 1 0.286849 0.738615 0.0640194
85 1 0.260452 0.983893 0.103438
21 1 0.249607 0.872957 -0.00153897
486 1 0.24691 0.904622 0.0970434
749 1 0.183462 0.613099 0.159245
1323 1 0.126699 0.0582528 0.427909
51 1 0.240311 0.943227 0.0159146
727 1 0.141062 0.310755 0.111126
1696 1 0.333454 0.947173 0.146721
91 1 0.106091 0.106841 0.178298
1306 1 0.428425 0.0138061 0.25814
246 1 0.402544 0.178686 0.0865966
1149 1 0.0509162 0.185162 0.215684
1040 1 0.137738 0.154846 0.238262
969 1 0.294495 0.255289 0.0885327
1999 1 0.400309 0.867236 0.0542896
142 1 0.104285 0.243419 0.106303
663 1 0.0928405 0.232789 0.247988
1864 1 0.384211 0.831312 0.316734
1692 1 0.251118 0.149908 0.334736
1805 1 0.296194 0.777093 0.410567
155 1 0.313942 0.26049 0.232512
1793 1 0.434434 0.0842676 0.394432
223 1 0.134186 0.300143 0.251461
1330 1 0.0890045 0.747667 0.00324906
927 1 0.170897 0.358294 0.475424
1563 1 0.234495 0.301624 0.250861
1923 1 0.23294 0.26456 0.175354
1470 1 0.340046 0.523212 0.205076
1595 1 0.0698859 0.225639 0.32104
918 1 0.0861499 0.29219 0.18594
1223 1 0.257973 0.342335 0.194916
1042 1 0.288201 0.459817 0.137994
1387 1 0.44676 0.674007 0.0267419
856 1 0.226323 0.450954 0.100368
1949 1 0.285127 0.384876 0.129071
440 1 0.36579 0.277082 0.408058
542 1 0.172754 0.564925 0.343525
1597 1 0.320144 0.531021 0.123767
1352 1 0.23886 0.66544 0.0797977
1496 1 0.347041 0.598604 0.0998876
25 1 0.239975 0.513184 0.31421
934 1 -0.000340197 0.792314 0.112919
894 1 0.160186 0.688743 0.0480196
164 1 0.440112 0.71304 0.18013
2028 1 0.341201 0.806155 0.0468338
1121 1 0.0790991 0.989985 0.224733
676 1 0.48657 0.544809 0.31145
121 1 0.24263 0.959086 0.181733
1305 1 0.486554 0.835707 0.00901914
1407 1 0.193572 0.695436 0.405054
62 1 0.043512 0.505525 0.0679257
1195 1 0.0748823 -0.0015772 0.428528
1081 1 0.434433 0.863927 0.17356
1774 1 0.133659 0.885184 0.246547
1580 1 0.00921331 0.166971 0.277059
1301 1 0.451551 0.844662 0.101776
1559 1 0.460249 0.886401 0.304072
235 1 0.38289 0.650615 0.472578
1216 1 0.476951 0.973767 0.348417
721 1 0.154226 0.0281645 0.0633164
847 1 0.452969 0.112493 0.251419
1684 1 0.361583 0.238617 0.0721708
1050 1 0.048963 0.480583 0.32983
1817 1 0.0149758 0.778837 0.442449
1344 1 0.16973 0.236457 0.222966
1633 1 0.327548 0.121909 0.239588
1741 1 0.422562 0.179426 0.279314
1959 1 0.339403 0.0798759 0.158986
471 1 0.234784 0.146697 0.236054
1249 1 0.396366 0.76286 0.0246152
225 1 0.215177 0.0347957 0.21427
168 1 0.258583 0.0559751 0.383948
1129 1 0.369091 0.233439 0.169687
1392 1 0.396122 0.345753 0.395009
944 1 0.182959 0.127163 0.312921
630 1 0.163991 0.245621 0.297816
1534 1 0.30718 0.338165 0.26498
603 1 0.273533 0.298297 0.377987
1047 1 0.283091 0.436668 0.216537
129 1 0.0961969 0.565061 0.276331
1987 1 0.283517 0.375937 0.373377
935 1 0.435923 0.46673 0.450437
1634 1 0.27082 0.456141 0.398845
1557 1 0.17321 0.332651 0.199372
92 1 0.410957 0.613834 0.413527
17 1 0.354457 0.448127 0.187374
812 1 0.38042 0.487474 0.35922
1988 1 0.300366 0.441956 0.466069
320 1 0.0182864 0.0960005 0.0632566
108 1 0.471868 0.443364 0.176251
855 1 0.220589 0.721501 0.0213377
75 1 0.41976 0.59727 0.0321603
1280 1 0.302949 0.732444 0.226234
1258 1 0.233323 0.59288 0.305434
1111 1 0.468361 0.983741 0.0529699
1161 1 0.268962 0.840834 0.275075
1185 1 0.404486 0.793362 0.170871
114 1 0.308999 0.749613 0.151675
868 1 0.459062 0.594005 0.260232
354 1 0.107411 0.0683216 0.0999106
1058 1 0.166358 0.0875474 0.237945
1979 1 0.0408025 0.15119 0.465633
544 1 0.329802 0.712792 0.297
438 1 0.369253 0.326087 0.22629
2009 1 0.326134 0.0389306 0.415795
1440 1 0.0261291 0.54678 0.48735
1337 1 0.455186 0.432082 0.0874809
284 1 0.0925342 0.0598584 0.247597
1184 1 0.200603 0.962357 0.265478
1963 1 0.260007 0.0546233 0.150718
1765 1 0.38952 0.355938 0.297713
467 1 0.126397 0.23839 0.440766
588 1 0.188949 0.0676492 0.121824
1303 1 0.00853896 0.705605 0.200148
1898 1 0.346855 0.245205 0.342319
637 1 0.0789626 0.138247 0.288431
205 1 0.376183 0.0914769 0.277848
607 1 0.172247 0.24496 0.13809
988 1 0.257053 0.183672 0.0940715
685 1 0.246402 0.334596 0.320682
206 1 0.455259 0.402122 0.357359
1909 1 0.241948 0.401928 0.439614
1381 1 0.0152449 0.373011 0.422253
1788 1 0.0538407 0.453917 0.435455
1779 1 0.23903 0.488984 0.187586
1625 1 0.130891 0.624758 0.336155
280 1 0.166082 0.595739 0.26602
1031 1 0.00750953 0.34921 0.350709
687 1 0.323279 0.66023 0.206833
897 1 0.163859 0.759376 0.0577416
1872 1 0.265231 0.690269 0.167926
929 1 0.117139 0.150858 0.442557
469 1 0.0653838 0.601661 0.377723
125 1 0.200856 0.534202 0.231446
452 1 0.00893512 0.400976 0.104395
1718 1 0.353321 0.50878 0.43962
360 1 0.0196016 0.55603 0.305848
925 1 0.21855 0.780683 0.310981
1523 1 0.288771 0.646081 0.294098
1935 1 0.105737 0.512601 0.453184
1204 1 0.451607 0.147915 0.166662
703 1 0.484086 0.0137266 0.116858
1319 1 0.0556802 0.316791 0.462282
1437 1 0.371543 0.707555 0.158948
1582 1 0.370445 0.836249 0.109375
273 1 0.124482 0.859969 0.177121
1879 1 0.019394 0.550572 0.121087
729 1 0.419561 0.946238 0.303432
610 1 0.270567 0.806743 0.126716
1326 1 0.211403 0.819178 0.0661772
1665 1 0.18087 0.723107 0.214866
1441 1 0.397216 0.826998 0.242313
662 1 0.368278 0.0352152 0.479867
1439 1 0.279182 0.70213 0.436399
314 1 0.183044 0.993264 0.120089
699 1 0.296676 0.969406 0.398009
757 1 0.166378 0.486181 0.13298
1468 1 0.38793 0.0496665 0.346922
652 1 0.38898 0.0275647 0.0303084
1564 1 0.355945 0.174688 0.321361
1960 1 0.0584379 0.773296 0.252698
691 1 0.0869159 0.957192 0.0627473
1070 1 0.175933 0.318235 0.345846
566 1 0.0307485 0.0957844 0.231227
1892 1 0.240953 0.124027 0.410071
1539 1 0.346046 0.574598 0.0174496
1007 1 0.298396 0.19376 0.37249
646 1 0.131315 0.259722 0.369809
781 1 0.177224 0.0914468 0.378048
1449 1 0.480317 0.56259 0.194081
1627 1 0.459081 0.200481 0.357317
1568 1 0.0294324 0.434802 0.0114413
669 1 0.38411 0.188421 0.388345
238 1 0.13778 0.392699 0.326719
1525 1 0.232537 0.225794 0.333171
18 1 0.109584 0.434643 0.389141
1870 1 0.348035 0.410622 0.344309
1795 1 0.295905 0.22562 0.154879
1983 1 0.0968045 0.543181 0.124025
239 1 0.141955 0.510847 0.291755
127 1 0.174824 0.406099 0.408174
628 1 0.425667 0.389579 0.443129
1594 1 0.222886 0.407577 0.18496
1339 1 0.153407 0.668778 0.28409
651 1 0.207352 0.417505 0.337425
200 1 0.339861 0.342745 0.162831
1640 1 0.152918 0.951464 0.201302
339 1 0.495236 0.770722 0.299602
554 1 0.397708 0.00390388 0.104466
1261 1 0.123527 0.783759 0.213176
197 1 0.241647 0.728237 0.359285
972 1 0.342674 0.274365 0.489112
1065 1 0.192609 0.690115 0.150993
1268 1 0.184969 0.857525 0.316844
684 1 0.057398 0.755212 0.365223
951 1 0.450845 0.0451635 0.455498
1834 1 0.0310635 0.385905 0.281975
293 1 0.461781 0.780832 0.0557306
1939 1 0.357663 0.76703 0.372756
1768 1 0.364621 0.754144 0.0942905
1850 1 0.314938 0.812764 0.185222
718 1 0.159654 0.777433 0.137926
1877 1 0.245514 0.801506 0.208067
824 1 0.121996 0.895218 0.0145305
1475 1 0.493054 0.105275 0.337065
1499 1 0.497139 0.493888 0.409671
936 1 0.386385 0.955638 0.0325232
193 1 0.26345 0.9402 0.30042
150 1 0.262744 0.0845892 0.269198
138 1 0.265315 0.614572 0.14622
259 1 0.378553 0.149454 0.00791825
1083 1 0.0660099 0.0100628 0.321639
198 1 0.421335 0.4386 0.290118
321 1 0.112009 0.0779689 0.329901
2017 1 0.333603 0.0347019 0.258137
1632 1 0.407591 0.301803 0.340284
833 1 0.480898 0.229733 0.297593
650 1 0.263829 0.992359 0.460271
1996 1 0.292324 0.00478528 0.207986
720 1 0.146298 0.88856 0.374125
1610 1 0.336075 0.586027 0.401602
255 1 0.189726 0.155452 0.457824
2008 1 0.255817 0.201167 0.434835
1562 1 0.331359 0.876251 0.0461556
377 1 0.427595 0.209253 0.208354
835 1 0.0595886 0.606303 0.460993
167 1 0.241594 0.0407937 0.0579868
1891 1 0.220934 0.334199 0.421628
1930 1 0.288281 0.263789 0.300454
343 1 0.190718 0.0261112 -0.000787096
1018 1 0.190334 0.209547 0.39466
2036 1 0.288003 0.344875 0.454595
1300 1 0.120294 0.734171 0.412958
1364 1 0.318822 0.480471 0.296088
941 1 0.314943 0.537662 0.352765
29 1 0.144337 0.706067 0.348749
1020 1 0.0581014 0.839218 0.215046
1618 1 0.137238 0.307464 0.025853
282 1 0.317916 0.663763 0.377401
312 1 0.330467 0.207939 0.441141
806 1 0.438326 0.24222 6.81395e-05
1824 1 0.0788074 0.904358 0.447466
2041 1 0.424211 0.748712 0.308834
184 1 0.133136 0.942474 0.289586
1489 1 0.182506 0.807485 0.249262
893 1 0.397865 0.667101 0.265655
501 1 0.362518 0.580274 0.47057
1578 1 0.217131 0.533356 0.399305
802 1 0.377501 0.887283 0.270678
1914 1 0.150484 0.756256 0.284917
1992 1 0.330368 0.959681 0.253461
632 1 0.468562 0.297769 0.214805
1536 1 0.211692 0.891765 0.240637
1059 1 0.127184 0.0258616 0.159374
1561 1 0.456948 0.588767 0.12629
670 1 0.412265 0.351055 0.0812987
938 1 0.0876902 0.935522 0.351567
1556 1 0.364326 0.901223 0.191866
350 1 0.19287 0.0538175 0.296832
194 1 0.493386 0.744145 0.134014
1373 1 0.00422168 0.559225 0.201626
520 1 0.463475 0.289642 0.391091
1868 1 0.127178 0.645832 0.117922
177 1 0.285753 0.799088 0.341531
421 1 0.438236 0.367869 0.0171245
1737 1 0.410899 0.834052 0.412436
116 1 0.224032 0.699591 0.481493
113 1 0.147026 0.315715 0.419621
1822 1 0.300838 0.140241 0.467487
1643 1 0.286542 0.267203 0.443148
768 1 0.132743 0.706164 0.4816
616 1 0.034452 0.275253 0.277302
667 1 0.298331 0.639086 0.0443248
946 1 0.437543 0.389039 0.217801
137 1 0.0560063 0.0527179 0.176316
995 1 0.0694314 0.386356 0.471791
1210 1 0.0777514 0.637861 0.254515
591 1 0.20254 0.959588 0.480039
913 1 0.267273 0.600049 0.370194
1459 1 0.197722 0.616221 0.401851
880 1 0.395792 0.659063 0.35319
1299 1 0.0509392 0.293412 0.383535
791 1 0.122446 0.582467 0.208828
173 1 0.107974 0.715444 0.241662
396 1 0.331432 0.950042 0.336838
1092 1 0.166221 0.481707 0.414232
1087 1 0.229151 0.628086 0.47647
1367 1 0.0482824 0.462166 0.126347
1901 1 0.0627006 0.50844 0.219315
1208 1 0.227342 0.545939 0.125681
139 1 0.460213 0.907267 0.0361007
1493 1 0.442379 0.762841 0.381737
1917 1 0.439497 0.953084 0.48979
1516 1 0.10309 0.830869 0.418052
12 1 0.0568731 0.67785 0.381634
1071 1 0.452549 0.0658719 0.0597208
1664 1 0.128514 0.658014 0.406568
1298 1 0.394854 0.639665 0.1738
65 1 0.205158 0.282639 0.473022
41 1 0.303695 0.875866 0.141433
1921 1 0.462949 0.635725 0.465079
794 1 0.457325 0.51966 0.117615
516 1 0.366992 0.893072 0.365778
1325 1 0.342481 0.404593 0.250351
11 1 0.194091 0.810343 0.377528
1476 1 0.469443 0.833834 0.253987
1652 1 0.0836229 0.0844384 0.485701
254 1 0.0363458 0.090093 0.320592
1897 1 0.0466158 0.800685 0.0551289
1483 1 0.37514 0.597988 0.23577
742 1 0.383725 0.900819 0.476455
371 1 0.417935 0.530689 0.411899
154 1 0.319516 0.786956 0.270545
2014 1 0.348078 0.36354 0.0224749
1164 1 0.350626 0.389629 0.0986719
175 1 0.495273 0.621102 0.004131
1715 1 0.148759 0.0131971 0.243245
442 1 0.140466 0.387405 0.084988
1703 1 0.363829 0.106746 0.404303
1905 1 0.0123278 0.943866 0.410015
728 1 0.12975 0.428164 0.471346
1182 1 0.204332 0.0631707 0.456107
1028 1 0.240793 0.803584 0.477293
493 1 0.126922 0.586301 0.423232
1115 1 0.314361 0.18996 0.0281007
1830 1 0.164605 0.952204 0.0577575
1748 1 0.437215 0.967084 0.176778
1601 1 0.200542 0.368166 0.277801
736 1 0.0043269 0.778952 0.313143
86 1 0.309216 0.631981 0.458093
1889 1 0.393104 0.295422 0.0329784
922 1 0.204014 0.550425 0.471713
1863 1 0.0782769 0.859278 0.354078
387 1 0.276774 0.543248 0.439114
599 1 0.0893338 0.445698 0.280051
1969 1 0.393529 0.440923 0.0367882
776 1 0.0602908 0.676655 0.452922
675 1 0.397933 0.556434 0.294924
1622 1 0.497137 0.220909 0.429465
1124 1 0.346856 0.40511 0.422913
552 1 0.323337 0.874189 0.428715
701 1 0.119128 0.783981 0.348166
1232 1 0.349621 0.781666 0.473226
1192 1 0.101621 0.0731969 0.000495034
1669 1 0.0390706 0.232342 0.147793
386 1 0.444626 0.767101 0.225864
1139 1 0.496518 0.35949 0.453807
775 1 0.298442 0.0034166 0.0298147
846 1 0.258927 0.13504 0.0170023
1186 1 0.491812 0.910264 0.157134
916 1 0.353414 0.350395 0.500133
1203 1 0.0192441 0.977042 0.476532
1363 1 0.448677 0.550226 0.479371
1722 1 0.0151338 0.864776 0.307445
1396 1 0.0127201 0.30095 0.0292779
453 1 0.00817612 0.939435 0.198433
1366 1 0.00169979 0.491587 0.395231
765 1 0.331949 0.481982 0.00809431
878 1 0.254447 0.467084 0.00704678
1060 1 0.00463447 0.504701 0.00224047
634 1 0.363548 0.955218 0.548423
2018 1 0.156868 0.106029 0.501365
1505 1 0.0791029 0.0875427 0.582894
620 1 0.287792 0.0576713 0.569697
219 1 0.253221 0.37919 0.584627
451 1 0.180798 0.0588444 0.801628
1411 1 0.380647 0.249296 0.618365
1135 1 0.0512837 0.498868 0.577362
1487 1 0.0799959 0.253562 0.62567
76 1 0.0555727 0.222918 0.519928
1228 1 0.215427 0.13226 0.758075
1457 1 0.31916 0.649734 0.627591
2029 1 0.184388 0.295163 0.714336
1786 1 0.333892 0.362955 0.781991
287 1 0.410808 0.463125 0.684896
605 1 0.216556 0.567815 0.98128
1302 1 0.151301 0.190478 0.512827
60 1 0.238579 0.437053 0.68788
1862 1 0.403337 0.0974149 0.888568
379 1 0.192867 0.441212 0.548059
1126 1 0.143935 0.857328 0.626195
573 1 0.00512952 0.720551 0.531967
1656 1 0.457336 0.598539 0.668123
954 1 0.418265 0.530816 0.654241
1331 1 0.501197 0.190779 0.654044
595 1 0.129135 0.531336 0.576294
1591 1 0.19979 0.428413 0.625544
34 1 0.471599 0.670063 0.64117
267 1 0.495593 0.544248 0.716144
484 1 0.241493 0.896813 0.858436
1143 1 0.188296 0.110375 0.694976
1695 1 0.143833 0.143025 0.565599
395 1 0.237744 0.988307 0.949364
822 1 0.367236 0.463321 0.767818
730 1 0.489705 0.676733 0.528204
1975 1 0.0819981 0.857035 0.676441
1503 1 0.485837 0.956069 0.743268
1467 1 0.0478226 0.0534315 0.64322
1374 1 0.419449 0.00521565 0.662476
1592 1 0.0724449 0.771593 0.582255
1812 1 0.279438 0.866857 0.787382
1100 1 0.459795 0.401721 0.673821
1702 1 0.282918 0.430673 0.745548
286 1 0.499336 0.315053 0.533668
47 1 0.00797878 0.0739656 0.984803
711 1 0.293261 0.375792 0.650374
747 1 0.382192 0.593396 0.937836
298 1 0.0725204 0.192594 0.766534
1107 1 0.303917 0.761976 0.627693
619 1 0.465214 0.601633 0.585804
611 1 0.154558 0.104859 0.899729
1727 1 0.137328 0.207636 0.826931
714 1 0.0794415 0.284237 0.884114
1078 1 0.164659 0.350099 0.968301
1134 1 0.140443 0.634575 0.510524
827 1 0.201522 0.616635 0.552822
508 1 0.274644 0.295924 0.663017
133 1 0.010035 0.85273 0.813489
1474 1 0.12402 0.447983 0.713232
1825 1 0.24967 0.156495 0.846281
306 1 0.381213 0.313534 0.850028
577 1 0.477917 0.267865 0.747733
1944 1 0.363519 0.413091 0.629753
1173 1 0.384179 0.751686 0.860009
924 1 0.0784083 0.356897 0.761633
1168 1 0.141086 0.182426 0.943193
2015 1 0.371547 0.4868 0.614579
1515 1 0.100995 0.562267 0.51142
1828 1 0.167942 0.98247 0.808799
1644 1 0.0856808 0.942556 0.551215
1530 1 0.176368 0.913635 0.824061
1820 1 0.449291 0.861728 0.843291
744 1 0.34856 0.655862 0.990255
1097 1 0.178579 0.713854 0.611722
348 1 0.325162 0.583655 0.736446
1436 1 0.080269 0.153466 0.528398
4 1 0.350734 0.692167 0.695903
664 1 0.155464 0.640262 0.608106
707 1 0.368389 0.575933 0.61993
1758 1 0.0375955 0.814775 0.973173
490 1 0.35684 0.903051 0.684042
1529 1 0.441781 0.888943 0.629006
1038 1 0.0134486 0.0217207 0.902895
686 1 0.00707073 0.818081 0.59112
1310 1 0.0465537 0.989779 0.776271
738 1 0.237845 0.797025 0.668843
1801 1 0.138705 0.998292 0.510841
1651 1 0.170277 0.957123 0.983126
176 1 0.421738 0.887777 0.55987
1689 1 0.414262 0.709099 0.534073
189 1 0.270942 0.401737 0.520862
157 1 0.0302885 0.0870569 0.867344
158 1 0.317081 0.814567 0.826694
253 1 0.33005 0.695063 0.507948
560 1 0.0618249 0.155371 0.620354
1573 1 0.462381 0.871212 0.739235
120 1 0.461918 0.772881 0.750287
1946 1 0.488015 0.00915865 0.956425
813 1 0.411711 0.953679 0.713907
1451 1 0.362679 0.326777 0.62843
715 1 0.274951 0.199321 0.96633
481 1 0.122559 0.169047 0.715574
695 1 0.0302184 0.293527 0.533375
696 1 0.48122 0.640601 0.864778
1175 1 0.387041 0.0703896 0.576086
533 1 0.136863 0.464471 0.911081
323 1 0.299406 0.188194 0.738994
1177 1 0.230356 0.0764115 0.611376
315 1 0.146542 0.301579 0.58052
1927 1 0.411244 0.823793 0.618938
1231 1 0.322334 0.440759 0.554878
299 1 0.439489 0.475626 0.822563
1465 1 0.317207 0.843855 0.895446
1531 1 0.214645 0.501822 0.667975
559 1 0.0145778 0.312701 0.609555
1416 1 0.247359 0.333272 0.779799
389 1 0.20785 0.352963 0.664542
1687 1 0.0984178 0.429888 0.781052
1385 1 0.00565915 0.53044 0.923153
243 1 0.447058 0.465162 0.615164
576 1 0.0123591 0.148395 0.728046
1014 1 0.0606309 0.474225 0.507137
555 1 0.179726 0.28028 0.643011
144 1 0.193037 0.549575 0.815986
313 1 0.427211 0.513335 0.743151
1920 1 0.338897 0.506995 0.719941
1347 1 0.094531 0.511996 0.710367
495 1 0.258385 0.58635 0.689194
756 1 0.420689 0.48282 0.539503
1682 1 0.418545 0.717967 0.633402
1624 1 0.266417 0.572354 0.57786
702 1 0.483537 0.391748 0.951471
1590 1 0.38186 0.826347 0.537078
743 1 0.0667948 0.489219 0.948098
180 1 0.188687 0.563959 0.627411
1348 1 0.221611 0.64588 0.994857
907 1 0.333099 0.828303 0.6203
1799 1 0.120351 0.841891 0.545913
1131 1 0.0718454 0.67771 0.530782
466 1 0.22502 0.0248946 0.512189
134 1 0.178579 0.785159 0.518351
359 1 0.295044 0.949046 0.664106
737 1 0.210586 0.705538 0.944814
1500 1 0.303623 0.796432 0.558525
141 1 0.0710325 0.02665 0.85496
28 1 0.400065 0.106654 0.651917
43 1 0.392013 0.888834 0.766459
425 1 0.178025 0.205929 0.658733
1227 1 0.160131 0.918585 0.577478
248 1 0.210148 0.217869 0.570503
211 1 0.481647 0.0433758 0.530697
1678 1 0.332578 0.766527 0.699067
1263 1 0.260159 0.13886 0.694123
1088 1 0.411773 0.538305 0.979654
564 1 0.130732 0.0613878 0.622887
818 1 0.218736 0.151356 0.630119
102 1 0.265663 0.0248657 0.675444
1023 1 0.125118 0.381897 0.534281
692 1 0.346831 0.0917831 0.51716
1022 1 0.124835 0.24856 0.710628
1443 1 0.31582 0.326376 0.713202
513 1 0.288361 0.145606 0.621561
2021 1 0.240984 0.21934 0.796777
1079 1 0.492409 0.0379867 0.745115
1345 1 0.256715 0.367536 0.717213
870 1 0.0214034 0.697623 0.60246
1984 1 0.351286 0.515002 0.551606
606 1 0.201078 0.327132 0.539059
1295 1 0.078983 0.64049 0.984623
1629 1 0.0928245 0.124339 0.947075
1688 1 0.484066 0.352839 0.845116
1267 1 0.0368861 0.453975 0.741488
672 1 0.119294 0.23261 0.567789
58 1 0.300912 0.531843 0.644187
1384 1 0.313483 0.613429 0.899728
1450 1 0.322276 0.870469 0.531937
1833 1 0.2117 0.640195 0.658988
1943 1 0.490432 0.0880058 0.850929
172 1 0.125905 0.570354 0.66565
1575 1 0.0666065 0.635216 0.622643
911 1 0.237732 0.803881 0.595355
543 1 0.223756 0.677919 0.736365
1636 1 0.255261 0.6566 0.578929
505 1 0.11221 0.647059 0.681105
1037 1 0.264928 0.736838 0.715487
3 1 0.410019 0.72996 0.726524
407 1 0.336106 0.295145 0.556954
1933 1 0.290967 0.390726 0.982434
546 1 0.394436 0.808535 0.708399
431 1 0.462518 0.954624 0.820079
1113 1 0.0419271 0.887888 0.516829
658 1 0.380888 0.767071 0.581548
257 1 0.398799 0.660897 0.750495
565 1 0.475287 0.937828 0.671587
1076 1 0.0359655 0.686484 0.813322
1645 1 0.141261 0.699999 0.970788
1252 1 0.418175 0.192237 0.649123
1527 1 0.17409 0.995003 0.569721
1954 1 0.123786 0.787306 0.784716
805 1 0.00887755 0.278016 0.83915
758 1 0.286221 0.0809148 0.733208
540 1 0.0340728 0.258042 0.97013
7 1 0.135632 0.136289 0.639815
881 1 0.36644 0.178869 0.592071
1586 1 0.410274 0.0133048 0.533686
615 1 0.333069 0.17445 0.677275
1147 1 0.456434 0.733943 0.981072
1972 1 0.106567 0.483006 0.638969
96 1 0.190397 0.283943 0.78968
1289 1 0.30456 0.219908 0.574167
1941 1 0.404813 0.193917 0.785293
1823 1 0.105271 0.152323 0.866798
1706 1 0.23768 0.243002 0.707518
1335 1 0.387306 0.236802 0.854206
740 1 0.450973 0.109248 0.522992
103 1 0.240665 0.734571 0.573377
1990 1 0.0647709 0.205432 0.685605
504 1 0.10089 0.40587 0.654694
1819 1 0.181124 0.393755 0.719897
1555 1 0.421301 0.614028 0.523656
1813 1 0.0113214 0.977672 0.993621
1142 1 0.293045 0.980044 0.538753
2033 1 0.448605 0.41338 0.874694
409 1 0.361444 0.0865091 0.970565
1609 1 0.421285 0.801796 0.81315
1670 1 0.319371 0.274789 0.860525
1112 1 0.127297 0.491226 0.814753
1804 1 0.389051 0.321765 0.764817
1399 1 0.490479 0.0987324 0.620268
602 1 0.126847 0.735462 0.552462
1253 1 0.159538 0.504855 0.747095
1320 1 0.174375 0.128899 0.830071
1048 1 0.146671 0.00312668 0.882548
1353 1 0.109138 0.343894 0.91459
614 1 0.363801 0.474871 0.858068
1172 1 0.249411 0.598997 0.763773
626 1 0.0351252 0.561188 0.624491
380 1 0.299826 0.372698 0.849034
69 1 0.287689 0.61729 0.828782
285 1 0.0790717 0.545651 0.902385
414 1 0.17335 0.614292 0.865433
1082 1 0.439944 0.944786 0.965541
291 1 0.284214 0.656812 0.695533
863 1 0.0740436 0.704032 0.898489
241 1 0.498193 0.12835 0.700647
1676 1 0.0241918 0.594672 0.885221
828 1 0.384421 0.368593 0.684986
1803 1 0.478315 0.708737 0.796472
871 1 0.230856 0.151165 0.520759
1272 1 0.108521 0.716509 0.636896
32 1 0.352554 0.731895 0.785841
1469 1 0.12078 0.928131 0.931058
366 1 0.120774 0.575271 0.760755
231 1 0.0465441 0.0679227 0.756746
1275 1 0.0656412 0.777353 0.662139
1693 1 0.35652 0.00679711 0.626263
1661 1 0.0570219 0.820008 0.764858
705 1 0.202187 0.786829 0.974869
1790 1 0.062815 0.0197825 0.536582
1222 1 0.253188 0.000987876 0.603697
864 1 0.484501 0.528567 0.580015
1776 1 0.368829 0.131752 0.786268
1485 1 0.455195 0.196938 0.842541
10 1 0.0797675 0.785763 0.910592
1542 1 0.193901 0.0272344 0.656836
1683 1 0.116419 0.290848 0.764324
557 1 0.448194 0.228535 0.911578
1406 1 0.296877 0.263491 0.781924
1506 1 0.251513 0.295468 0.853481
1838 1 0.349582 0.246485 0.992811
958 1 0.485418 0.671187 0.710513
423 1 0.494774 0.283858 0.929646
1816 1 0.405907 0.64972 0.66968
1550 1 0.131668 0.304692 0.834642
1775 1 0.442673 0.325916 0.683731
195 1 0.121652 0.540939 0.968231
1808 1 0.0635313 0.515852 0.792914
412 1 0.253103 0.303022 0.590267
61 1 0.476781 0.0448494 0.673813
524 1 0.146755 0.367504 0.785465
1096 1 0.284807 0.445625 0.818973
72 1 0.464055 0.75819 0.861495
1030 1 0.227817 0.399633 0.814078
2027 1 0.398529 0.568771 0.70717
1649 1 0.0126167 0.605361 0.530595
178 1 0.180931 0.849271 0.882791
865 1 0.0956376 0.853015 0.942497
1025 1 0.40635 0.65188 0.592278
920 1 0.239966 0.505372 0.758974
307 1 0.112596 0.868673 0.83773
491 1 0.219243 0.00750142 0.730599
1377 1 0.113453 0.0849683 0.690465
587 1 0.0655014 0.214617 0.901128
1488 1 0.110806 0.755255 0.718267
482 1 0.319508 0.717466 0.886088
723 1 0.197286 0.211891 0.984203
803 1 0.190011 0.787077 0.744457
1432 1 0.411842 0.549542 0.573377
1720 1 0.31409 0.842307 0.981496
1796 1 0.173885 0.708579 0.693741
244 1 0.247432 0.94755 0.784463
227 1 0.00149745 0.249995 0.661552
624 1 0.319311 0.0520236 0.906602
1308 1 0.0347293 0.709501 0.684192
724 1 0.361183 0.01604 0.722912
2046 1 0.228958 0.948512 0.561195
1904 1 0.0485377 0.812531 0.513981
1412 1 0.419189 0.0838667 0.815381
1341 1 0.441185 0.0709918 0.990278
1001 1 0.225152 0.876888 0.667201
712 1 0.0183037 0.0822181 0.520419
217 1 0.296131 0.957648 0.8988
888 1 0.0727096 0.0530065 0.940022
704 1 0.199746 0.947045 0.637129
1826 1 0.287803 0.696393 0.954435
292 1 0.132072 0.340006 0.672858
329 1 0.0611593 0.227192 0.826477
1466 1 0.275542 0.207064 0.890066
1288 1 0.0648493 0.349525 0.985798
1144 1 0.451683 0.284322 0.83027
1380 1 0.0122936 0.167251 0.957099
1648 1 0.0695771 0.410109 0.919978
1101 1 0.355099 0.24349 0.919334
226 1 0.011659 0.410844 0.634893
42 1 0.0511791 0.389475 0.824224
1130 1 0.198436 0.448807 0.773138
1041 1 0.281408 0.529319 0.969224
1383 1 0.066978 0.594 0.71627
351 1 0.49176 0.471398 0.673699
1170 1 0.10515 0.244241 0.964222
1964 1 0.252471 0.424236 0.888503
1519 1 0.377156 0.53277 0.801433
159 1 0.00805399 0.773731 0.714441
397 1 0.293787 0.537877 0.795123
1271 1 0.435809 0.149948 0.591406
228 1 0.382163 0.466648 0.931215
1093 1 0.47439 0.606873 0.75192
1738 1 0.333105 0.778769 0.929536
1950 1 0.128375 0.919967 0.675817
851 1 0.296024 0.69003 0.761561
1212 1 0.215227 0.861989 0.736727
648 1 0.0498237 0.296927 0.699334
100 1 0.274738 0.896575 0.933854
1361 1 0.379328 0.844045 0.854046
88 1 0.0643087 0.969334 0.905512
208 1 0.00641365 0.150481 0.543774
336 1 0.187282 0.833267 0.812133
1498 1 0.195839 0.93767 0.712571
400 1 0.29294 0.993731 0.741483
295 1 0.49222 0.017291 0.827725
1674 1 0.302288 0.903713 0.604774
759 1 0.0534531 0.00566255 0.692158
1777 1 0.0116535 0.752092 0.896348
1628 1 0.00382607 0.164565 0.877751
1247 1 0.313208 0.0832746 0.656248
1966 1 0.391262 0.922732 0.839152
1158 1 0.318191 0.141349 0.920471
1934 1 0.411959 0.0035684 0.784786
1708 1 0.0515551 0.418757 0.553505
2043 1 0.424636 0.0589857 0.733634
1404 1 0.173811 0.866804 0.967439
1456 1 0.109777 0.000500473 0.994345
994 1 0.12954 0.414149 0.968541
204 1 0.231236 0.965853 0.861829
1032 1 0.20802 0.231051 0.863594
236 1 0.450833 0.0338647 0.601557
838 1 0.31389 0.70298 0.577153
140 1 0.371462 0.659872 0.907263
23 1 0.391072 0.177112 0.941279
1245 1 0.32028 0.353048 0.929686
454 1 0.293265 0.284747 0.944466
77 1 0.00855738 0.492027 0.655272