ITEM: TIMESTEP
100000
ITEM: NUMBER OF ATOMS
2048
ITEM: BOX BOUNDS pp pp pp
0.0000000000000000e+00 1.2302095357258066e+01
0.0000000000000000e+00 1.2302095357258066e+01
0.0000000000000000e+00 1.2302095357258066e+01
ITEM: ATOMS id type xs ys zs
1962 1 0.012596 0.0399828 0.018766
745 1 0.0938954 0.00812222 0.0549117
787 1 0.281525 0.00287754 0.0130492
1162 1 0.0778903 0.102927 0.0184956
1430 1 0.157343 0.0691789 0.0486457
666 1 0.452522 0.0904286 0.0147405
1278 1 0.191082 0.136907 0.0173555
1648 1 0.268466 0.154353 0.0317738
1923 1 0.00118657 0.218938 0.0232454
1732 1 0.0926046 0.202861 0.0216761
81 1 0.179064 0.213874 0.0493438
1320 1 0.385517 0.167126 0.000399391
39 1 0.355378 0.260341 0.0456912
1573 1 0.442489 0.233922 0.0312909
1457 1 0.0793874 0.278127 0.0323314
943 1 0.203919 0.291695 0.0187191
1635 1 0.361479 0.329584 0.00801928
199 1 0.0644982 0.354243 0.0361979
751 1 0.137231 0.333687 0.0112886
133 1 0.211699 0.38192 0.0166956
1723 1 0.43747 0.370284 0.0135246
986 1 0.116153 0.408843 0.011298
494 1 0.277225 0.423801 0.0413064
1153 1 0.351829 0.407728 0.0192491
1674 1 0.216161 0.468484 0.036096
1401 1 0.29615 0.499801 0.0119165
1364 1 0.47939 0.472225 0.0152401
65 1 0.0381574 0.504265 0.0268418
510 1 0.121422 0.503025 0.0155261
1989 1 0.415624 0.526473 0.0528734
1103 1 0.100408 0.579983 0.0351404
379 1 0.329542 0.556303 0.0514758
621 1 0.486797 0.556746 0.0486259
992 1 0.0503091 0.640768 0.00475219
1817 1 0.129469 0.659727 0.028639
1058 1 0.189633 0.623214 0.0544294
674 1 0.283051 0.61958 0.0511021
509 1 0.464107 0.661729 0.0539235
1017 1 0.239596 0.696805 0.0121025
366 1 0.393866 0.685905 0.0167601
335 1 0.0395136 0.770454 0.0379265
1509 1 0.224721 0.7707 0.0038957
1031 1 0.299801 0.745562 0.0100715
1237 1 0.459576 0.742133 0.0381851
1134 1 0.117368 0.786036 0.0193256
275 1 0.309235 0.827096 0.00895468
184 1 0.372743 0.780105 0.0277171
397 1 0.443195 0.823167 0.0103759
1630 1 0.0474501 0.844051 0.015657
1289 1 0.183136 0.837773 0.0293373
1596 1 0.253744 0.874821 0.0410108
1080 1 0.380132 0.871951 0.0159606
1889 1 0.0812043 0.915837 0.0548014
469 1 0.159506 0.919 0.0374482
1352 1 0.321062 0.933626 0.0458028
1240 1 0.0125604 0.961675 0.0229762
683 1 0.174966 0.993394 0.0320187
840 1 0.393432 0.954544 0.0268045
789 1 0.463441 0.948244 0.00269319
721 1 0.0235548 0.0111968 0.0908872
186 1 0.231714 0.0329848 0.0846334
1443 1 0.349969 0.00829414 0.0715732
589 1 0.443962 0.00416525 0.0579972
1719 1 0.0684094 0.0787457 0.0902105
1601 1 0.296849 0.0798944 0.0622127
1016 1 0.37083 0.0999245 0.0574289
1350 1 0.0463805 0.16521 0.0732366
468 1 0.128496 0.142626 0.0652159
707 1 0.215362 0.120706 0.0907039
1490 1 0.443857 0.142589 0.0730055
1265 1 0.110151 0.221368 0.101608
604 1 0.250271 0.189121 0.102848
1779 1 0.332902 0.177246 0.0652465
151 1 0.400196 0.21002 0.0878411
1829 1 0.0315083 0.235694 0.0956122
1252 1 0.282784 0.245595 0.0590614
1423 1 0.497168 0.24473 0.0871527
1236 1 0.142936 0.289037 0.0819064
1100 1 0.291481 0.32771 0.0689088
1508 1 0.419862 0.304652 0.060694
262 1 0.11972 0.366393 0.0926166
328 1 0.204733 0.347494 0.0855754
1992 1 0.3727 0.359921 0.100654
1624 1 0.0623326 0.434905 0.0648486
1380 1 0.230034 0.421438 0.0969579
488 1 0.416157 0.417973 0.0680642
1084 1 0.491285 0.409149 0.0586869
1653 1 0.14936 0.445687 0.0765187
1553 1 0.342338 0.47662 0.0832063
264 1 0.103937 0.511316 0.0939609
835 1 0.184039 0.53545 0.0652333
1542 1 0.26121 0.51759 0.0776721
1198 1 0.0374768 0.561992 0.0815299
1976 1 0.402083 0.610773 0.0564259
1214 1 0.072966 0.635388 0.0802821
1557 1 0.341943 0.651557 0.0963356
149 1 0.0125601 0.681779 0.0710187
1911 1 0.0873009 0.716587 0.080726
472 1 0.187885 0.71878 0.0648935
525 1 0.25573 0.689802 0.0872641
2017 1 0.403784 0.720437 0.0867571
922 1 0.257636 0.772715 0.0731109
2003 1 0.327694 0.732561 0.082806
471 1 0.168482 0.788205 0.0898654
606 1 0.0363275 0.834045 0.0924152
696 1 0.113269 0.846469 0.068355
1995 1 0.1965 0.887938 0.110218
595 1 0.313999 0.836747 0.0894637
870 1 0.405052 0.84339 0.0885125
76 1 0.487222 0.85664 0.104642
1197 1 0.0121131 0.914086 0.0918778
2029 1 0.358083 0.90547 0.10799
53 1 0.453735 0.920545 0.0739243
765 1 0.146516 0.961116 0.100735
988 1 0.239497 0.951202 0.0646993
890 1 0.0809708 0.0364525 0.157735
487 1 0.15836 0.0405028 0.129385
527 1 0.253309 0.0360911 0.165031
565 1 0.319769 0.054947 0.134924
1037 1 0.418003 0.0508602 0.115836
1375 1 0.0554876 0.141554 0.149534
670 1 0.143554 0.114122 0.14448
1715 1 0.224578 0.125161 0.165588
1588 1 0.303878 0.134818 0.127052
1901 1 0.381926 0.142064 0.125051
323 1 0.466228 0.111377 0.144018
393 1 0.175107 0.184899 0.137972
1902 1 0.454912 0.185445 0.146463
960 1 0.211418 0.262599 0.125395
1470 1 0.292792 0.247684 0.153086
902 1 0.0778832 0.306704 0.121833
1927 1 0.157819 0.326184 0.151526
220 1 0.312229 0.329874 0.156626
2019 1 0.365138 0.279563 0.125452
668 1 0.44896 0.280039 0.134446
993 1 0.0419031 0.382186 0.116242
1369 1 0.23881 0.357739 0.153819
164 1 0.456927 0.354538 0.120092
372 1 0.167923 0.403185 0.144536
1356 1 0.304686 0.402124 0.113725
961 1 0.378453 0.426902 0.153357
1303 1 0.464323 0.429815 0.140194
181 1 0.125731 0.471823 0.160454
1570 1 0.193925 0.485857 0.125869
1004 1 0.2716 0.469961 0.140778
1938 1 0.00292541 0.513838 0.140182
950 1 0.400763 0.500991 0.128878
1546 1 0.130549 0.579545 0.115241
282 1 0.228109 0.589965 0.114022
1130 1 0.299187 0.559556 0.136874
1128 1 0.374701 0.574251 0.115376
387 1 0.454531 0.565603 0.122762
543 1 0.000872809 0.621339 0.125264
1241 1 0.197712 0.65688 0.140622
802 1 0.280881 0.639942 0.148349
1445 1 0.41876 0.648332 0.12192
798 1 0.0640292 0.670046 0.149718
1230 1 0.132857 0.715507 0.15544
1378 1 0.477641 0.707508 0.120513
1280 1 0.0184667 0.739907 0.128871
1746 1 0.206616 0.735438 0.151679
1183 1 0.282146 0.759413 0.161546
136 1 0.0941325 0.792567 0.126912
1611 1 0.232102 0.826078 0.156353
1191 1 0.37561 0.778306 0.129771
188 1 0.458526 0.789208 0.143055
801 1 0.0910926 0.885218 0.133694
1703 1 0.151241 0.833576 0.16276
1909 1 0.274522 0.903169 0.125675
839 1 0.435282 0.914626 0.154849
307 1 0.0662255 0.962593 0.138234
1571 1 0.211683 0.964233 0.139304
435 1 0.297547 0.974248 0.121812
1664 1 0.378191 0.986142 0.141586
1898 1 0.497063 0.97466 0.119126
570 1 0.326549 0.0160317 0.212002
1135 1 0.456711 0.0314392 0.182414
1699 1 0.022134 0.0831831 0.200499
1172 1 0.100302 0.0954079 0.216342
259 1 0.180923 0.0637402 0.205544
1146 1 0.297002 0.102978 0.197807
1818 1 0.391641 0.0862564 0.194438
546 1 0.351145 0.154105 0.220909
2030 1 0.0353281 0.215907 0.174273
629 1 0.113434 0.179053 0.191421
556 1 0.242653 0.196987 0.188973
1966 1 0.368606 0.211374 0.169983
1940 1 0.145809 0.249646 0.171331
717 1 0.34509 0.268823 0.219318
1679 1 0.00187397 0.285278 0.167881
1970 1 0.0755419 0.283636 0.200732
1405 1 0.20056 0.291285 0.208162
1900 1 0.397061 0.324577 0.183361
1663 1 0.470455 0.318912 0.205875
432 1 0.0612749 0.358209 0.186719
464 1 0.194317 0.383201 0.217122
1870 1 0.267571 0.418259 0.201215
1500 1 0.428682 0.39598 0.20608
1893 1 0.0479449 0.458295 0.172478
884 1 0.203863 0.47421 0.210794
1623 1 0.0822001 0.540634 0.169403
689 1 0.168646 0.543517 0.172019
1528 1 0.245833 0.53381 0.19307
457 1 0.343757 0.501552 0.180389
800 1 0.468289 0.52094 0.191718
1011 1 0.0133257 0.564838 0.204613
1377 1 0.315512 0.572846 0.209561
1694 1 0.398976 0.56215 0.191616
256 1 0.0445697 0.638986 0.21945
203 1 0.146539 0.62248 0.19586
143 1 0.224334 0.61781 0.207649
1064 1 0.356967 0.628811 0.172567
990 1 0.47314 0.656321 0.207604
161 1 0.182804 0.684887 0.210556
892 1 0.253985 0.708193 0.218627
825 1 0.334415 0.700904 0.172146
438 1 0.0687146 0.747471 0.193713
1151 1 0.357896 0.765138 0.208517
600 1 0.413626 0.722451 0.173604
1094 1 0.0685103 0.822951 0.192446
47 1 0.327836 0.821635 0.17506
386 1 0.283006 0.877389 0.213764
64 1 0.407471 0.862477 0.211274
1622 1 0.49402 0.857216 0.187121
940 1 0.0298066 0.893083 0.187401
331 1 0.13509 0.905927 0.194436
1121 1 0.212397 0.910755 0.200179
1141 1 0.357111 0.919835 0.196384
1406 1 0.0359254 0.99591 0.220126
1961 1 0.122927 0.984679 0.204266
1196 1 0.198783 0.986128 0.222129
882 1 0.282852 0.952169 0.193948
573 1 0.401344 0.986185 0.217604
1724 1 0.136392 0.0381945 0.257271
2028 1 0.252277 0.0413345 0.251901
522 1 0.427536 0.0451768 0.262191
1389 1 0.0111006 0.0575179 0.274107
571 1 0.342808 0.0794333 0.260647
697 1 0.462871 0.100035 0.222818
182 1 0.0552562 0.145279 0.258963
808 1 0.167699 0.138645 0.230551
237 1 0.244266 0.130789 0.25237
2000 1 0.131179 0.209307 0.258415
748 1 0.292355 0.213862 0.252294
1411 1 0.366173 0.211333 0.270596
1762 1 0.44212 0.181687 0.224859
1059 1 0.0477769 0.224156 0.250779
1137 1 0.425609 0.266809 0.247079
1529 1 0.0648598 0.312321 0.276676
1907 1 0.00297081 0.340498 0.229896
7 1 0.125266 0.338709 0.226777
1269 1 0.26957 0.337512 0.236465
880 1 0.347301 0.34236 0.254669
1260 1 0.431802 0.341461 0.267584
268 1 0.0569413 0.396817 0.262609
1281 1 0.1186 0.41581 0.223401
1086 1 0.17774 0.433895 0.276189
1512 1 0.340785 0.432012 0.237958
795 1 0.489531 0.444255 0.22406
1774 1 0.411734 0.468613 0.223965
414 1 0.057735 0.508047 0.243091
1662 1 0.135237 0.501132 0.23562
1460 1 0.30031 0.500209 0.249285
1098 1 0.489391 0.520891 0.270666
1073 1 0.0983045 0.579537 0.233659
490 1 0.171571 0.577276 0.258744
1806 1 0.256045 0.569082 0.26599
1228 1 0.46053 0.584735 0.236793
1735 1 0.316333 0.646338 0.243423
296 1 0.389339 0.622043 0.247779
1787 1 0.0314297 0.713524 0.254948
572 1 0.111676 0.694446 0.238428
1028 1 0.399309 0.713828 0.2511
849 1 0.149434 0.777146 0.223351
904 1 0.220829 0.756211 0.275093
352 1 0.316868 0.725958 0.265606
194 1 0.472618 0.731564 0.271401
1725 1 0.00368824 0.806874 0.240051
639 1 0.0771643 0.786545 0.266592
1592 1 0.275676 0.793792 0.23169
1125 1 0.458133 0.797011 0.228716
1038 1 0.11816 0.856228 0.263589
1451 1 0.204882 0.841267 0.232417
78 1 0.344577 0.843776 0.251018
809 1 0.0804185 0.940202 0.245455
180 1 0.177273 0.906948 0.272357
1219 1 0.279911 0.924045 0.277094
1986 1 0.367247 0.912831 0.275509
1881 1 0.452668 0.920909 0.233694
930 1 0.48729 0.989962 0.266187
1965 1 0.0716544 0.00604167 0.289954
192 1 0.0611026 0.0799988 0.330162
1239 1 0.192496 0.0814174 0.287585
1253 1 0.274974 0.0729054 0.324035
465 1 0.120958 0.127682 0.303802
738 1 0.315537 0.140768 0.30523
363 1 0.403337 0.136622 0.292384
1371 1 0.496703 0.146848 0.292052
1814 1 0.0152269 0.216597 0.325109
404 1 0.208121 0.203178 0.279656
1931 1 0.289388 0.213328 0.331716
1437 1 0.432961 0.201426 0.314128
1928 1 0.0975105 0.24025 0.321616
336 1 0.243429 0.274111 0.283117
1307 1 0.160155 0.278166 0.286194
44 1 0.315547 0.280542 0.291681
714 1 0.372366 0.320388 0.331865
190 1 0.469944 0.284602 0.310057
125 1 0.124034 0.358116 0.30082
511 1 0.205677 0.344138 0.284662
459 1 0.307332 0.3919 0.311474
945 1 0.394292 0.413167 0.293704
160 1 0.481442 0.41244 0.300559
1535 1 0.0816789 0.465356 0.313285
910 1 0.258551 0.445615 0.283746
1388 1 0.412185 0.489953 0.303962
226 1 0.133278 0.539668 0.315797
2013 1 0.216238 0.509044 0.292465
370 1 0.292861 0.533562 0.330111
1155 1 0.0300755 0.569334 0.298538
732 1 0.35276 0.556311 0.287189
443 1 0.41977 0.594631 0.323525
409 1 0.498178 0.600526 0.311974
1234 1 0.0708487 0.651129 0.313443
1786 1 0.162551 0.646717 0.291003
810 1 0.27802 0.616422 0.333116
1713 1 0.362322 0.650686 0.312024
962 1 0.450196 0.653867 0.285327
641 1 0.258705 0.679987 0.289524
426 1 0.416074 0.713907 0.331232
932 1 0.136256 0.745168 0.302291
1294 1 0.02757 0.8187 0.317519
466 1 0.183249 0.818623 0.308561
1945 1 0.390484 0.785839 0.280754
1800 1 0.458387 0.795501 0.312223
1374 1 0.0330807 0.886707 0.278106
1382 1 0.257193 0.853805 0.294288
357 1 0.4149 0.857674 0.293625
834 1 0.497116 0.870332 0.282905
73 1 0.124302 0.948512 0.315705
170 1 0.190834 0.998123 0.304926
1598 1 0.274343 0.995289 0.321511
1636 1 0.341358 0.984508 0.284586
1834 1 0.435821 0.958263 0.320448
1661 1 0.12915 0.0346329 0.339676
42 1 0.338834 0.0415342 0.340546
402 1 0.420813 0.0373111 0.364106
1391 1 0.186459 0.0866973 0.364887
531 1 0.375551 0.104875 0.371494
598 1 0.00599044 0.130797 0.339228
1195 1 0.235976 0.138416 0.335287
1764 1 0.302862 0.134842 0.380659
1583 1 0.451613 0.125369 0.355944
1706 1 0.0739907 0.169712 0.353764
1888 1 0.15212 0.185889 0.339903
883 1 0.0557387 0.247213 0.388352
1543 1 0.209541 0.245511 0.353238
1474 1 0.362161 0.241288 0.342101
611 1 0.440164 0.254578 0.377869
1099 1 0.0111605 0.299279 0.352555
793 1 0.0845054 0.314058 0.365966
1007 1 0.162057 0.309307 0.382428
1891 1 0.237386 0.318672 0.362336
1810 1 0.310886 0.311764 0.382907
1950 1 0.0399501 0.381384 0.34682
534 1 0.270166 0.384243 0.385744
1157 1 0.356531 0.381629 0.373134
1544 1 0.43802 0.38062 0.365753
1189 1 0.12103 0.407474 0.366615
58 1 0.195199 0.401371 0.344588
12 1 0.0299163 0.453209 0.379461
811 1 0.175464 0.495146 0.362651
644 1 0.255146 0.468033 0.361609
163 1 0.329535 0.465051 0.343005
148 1 0.420695 0.453959 0.377567
563 1 0.0583753 0.537473 0.36193
1768 1 0.374443 0.532105 0.357903
1671 1 0.455591 0.535915 0.35247
678 1 0.133423 0.578771 0.383993
1184 1 0.200868 0.594518 0.333919
1591 1 0.366872 0.609737 0.380269
33 1 0.44651 0.650903 0.386174
8 1 0.121606 0.693397 0.368577
1658 1 0.200774 0.712479 0.335066
1025 1 0.288045 0.691068 0.368105
1126 1 0.0462037 0.724182 0.336236
2001 1 0.260699 0.76816 0.340207
1899 1 0.34523 0.755834 0.341099
1353 1 0.101699 0.799163 0.348985
1426 1 0.177137 0.780001 0.37457
842 1 0.40892 0.781609 0.368944
1337 1 0.0778149 0.873936 0.338015
324 1 0.156054 0.883788 0.355961
630 1 0.230191 0.837305 0.369086
1540 1 0.314329 0.83421 0.344647
712 1 0.385558 0.884409 0.387902
893 1 0.00375238 0.891657 0.353522
1984 1 0.228324 0.912749 0.33425
1896 1 0.28161 0.902237 0.38823
1308 1 0.345742 0.935934 0.344988
1846 1 0.467635 0.89606 0.35413
791 1 0.0352923 0.971618 0.349073
470 1 0.171545 0.967743 0.383093
1917 1 0.488996 0.989586 0.368502
1558 1 0.0311172 0.041243 0.398794
1687 1 0.101932 0.00997092 0.417236
375 1 0.174324 0.0408896 0.430013
295 1 0.242215 0.0187882 0.397726
1422 1 0.384194 0.0255138 0.437616
1507 1 0.0890423 0.101015 0.408398
123 1 0.244802 0.0972342 0.415091
916 1 0.319131 0.0688228 0.42131
1212 1 0.476336 0.066072 0.416139
365 1 0.000829229 0.112584 0.416464
954 1 0.15091 0.151461 0.411568
1523 1 0.0543577 0.171197 0.43138
1744 1 0.238429 0.18727 0.396474
1054 1 0.40474 0.188238 0.393038
1493 1 0.485501 0.171064 0.408022
1665 1 0.131394 0.230766 0.420459
2045 1 0.226305 0.260561 0.432146
1958 1 0.297688 0.238277 0.401956
21 1 0.371524 0.260442 0.416328
1095 1 0.478066 0.277695 0.441621
815 1 0.0438642 0.309672 0.439836
124 1 0.137197 0.372023 0.439345
449 1 0.407969 0.336307 0.433496
1536 1 0.493867 0.351226 0.436546
297 1 0.0605327 0.403406 0.437705
1638 1 0.183827 0.441241 0.4192
1292 1 0.377116 0.429524 0.435273
743 1 0.470365 0.439649 0.442342
399 1 0.101669 0.467165 0.414868
1409 1 0.310055 0.478627 0.421662
210 1 0.160858 0.525245 0.439423
396 1 0.222228 0.547368 0.391452
690 1 0.313154 0.555331 0.410771
406 1 0.380414 0.507117 0.438486
218 1 0.496756 0.516072 0.436601
1767 1 0.0774274 0.563763 0.434988
219 1 0.432498 0.562373 0.423467
395 1 0.061234 0.630393 0.393051
872 1 0.18394 0.648402 0.39672
1921 1 0.259377 0.615484 0.411202
305 1 0.0385517 0.705423 0.416146
1742 1 0.163114 0.714028 0.444344
338 1 0.36632 0.688029 0.389596
1868 1 0.107562 0.75871 0.412751
250 1 0.234244 0.737758 0.418419
1863 1 0.328515 0.756776 0.41355
937 1 0.469089 0.738397 0.391483
561 1 0.0298356 0.795009 0.397208
1510 1 0.270963 0.812553 0.431231
1736 1 0.02453 0.87932 0.429402
442 1 0.101607 0.850151 0.409976
49 1 0.181858 0.866247 0.427366
750 1 0.344735 0.853443 0.438732
205 1 0.459238 0.838955 0.41655
1614 1 0.100534 0.930856 0.414821
1668 1 0.216047 0.937866 0.438222
310 1 0.48053 0.925584 0.432848
1488 1 0.0118778 0.974666 0.43723
80 1 0.312447 0.973504 0.403549
477 1 0.406763 0.960727 0.402058
579 1 0.238503 0.00507496 0.477841
946 1 0.0291792 0.0746966 0.486408
1492 1 0.131458 0.0611211 0.49213
1154 1 0.278179 0.075132 0.495751
380 1 0.41212 0.0985179 0.462409
966 1 0.116042 0.146237 0.482965
1499 1 0.208764 0.11946 0.480996
1478 1 0.336557 0.138333 0.454663
1449 1 0.484871 0.11752 0.479989
2033 1 0.175994 0.218082 0.49162
111 1 0.25865 0.17501 0.472477
1301 1 0.342443 0.212799 0.473615
1273 1 0.43312 0.191266 0.46154
1988 1 0.0737249 0.233782 0.475185
836 1 0.145315 0.301185 0.465907
1209 1 0.296499 0.288392 0.466929
2038 1 0.382556 0.286922 0.487771
1262 1 0.2252 0.360755 0.445317
77 1 0.332868 0.363556 0.464371
1519 1 0.409329 0.381524 0.499404
830 1 0.271962 0.419548 0.461049
1854 1 0.0350182 0.498518 0.451842
1647 1 0.111413 0.48994 0.492592
1657 1 0.238363 0.504121 0.45444
32 1 0.302865 0.539872 0.483899
781 1 0.120948 0.582999 0.497336
982 1 0.195092 0.587161 0.460206
241 1 0.361842 0.582943 0.464911
189 1 0.494587 0.60984 0.466151
20 1 0.0460294 0.630605 0.473739
1024 1 0.117293 0.648886 0.44542
794 1 0.280767 0.623433 0.492748
46 1 0.414268 0.64413 0.463659
1952 1 0.216595 0.669213 0.475089
1788 1 0.292965 0.690065 0.447489
879 1 0.479545 0.684994 0.450714
1645 1 0.0348731 0.761558 0.472059
1484 1 0.291879 0.762996 0.487519
467 1 0.403117 0.72979 0.452442
1587 1 0.16548 0.794989 0.463133
348 1 0.365602 0.802352 0.499848
1926 1 0.460414 0.785722 0.470822
283 1 0.0617277 0.838374 0.481163
901 1 0.142968 0.86759 0.498739
28 1 0.225915 0.840367 0.494079
685 1 0.41616 0.881592 0.470318
2039 1 0.0582103 0.922407 0.49685
138 1 0.351163 0.925012 0.456052
1225 1 0.148677 0.96926 0.475215
61 1 0.329382 0.997444 0.488568
1748 1 0.467094 0.99958 0.469137
1572 1 0.0810365 0.00257081 0.502087
1093 1 0.150821 0.000676677 0.546215
1163 1 0.410096 0.0345715 0.513586
1673 1 0.496972 0.0449318 0.538419
319 1 0.0818518 0.0910336 0.542609
1826 1 0.213295 0.0688681 0.543626
1427 1 0.34899 0.0928375 0.522658
978 1 0.155691 0.125165 0.546351
45 1 0.396141 0.152994 0.521421
234 1 0.0458071 0.177499 0.526056
1061 1 0.11714 0.18944 0.546951
1914 1 0.219761 0.168936 0.540265
289 1 0.294363 0.171854 0.54584
555 1 0.262305 0.240672 0.524421
637 1 0.341871 0.245831 0.549344
692 1 0.421221 0.253606 0.549079
1122 1 0.485266 0.233457 0.5031
204 1 0.014284 0.303517 0.548846
545 1 0.102876 0.278762 0.554553
1181 1 0.193914 0.30841 0.527647
845 1 0.335776 0.326533 0.535572
1075 1 0.455028 0.318141 0.512483
713 1 0.0778703 0.333807 0.507664
1227 1 0.0257116 0.39409 0.540324
110 1 0.0979608 0.412388 0.503465
401 1 0.17869 0.434942 0.508925
1642 1 0.294046 0.402577 0.541469
846 1 0.45942 0.438248 0.522508
702 1 0.0310118 0.47137 0.530596
603 1 0.27437 0.475751 0.521992
1516 1 0.346112 0.468987 0.500089
624 1 0.0625511 0.541216 0.527454
1218 1 0.242301 0.550785 0.525644
1076 1 0.362371 0.538903 0.537447
36 1 0.444983 0.525292 0.500832
792 1 0.00870366 0.606161 0.549452
1414 1 0.457796 0.590576 0.547972
1175 1 0.0872589 0.627358 0.552739
193 1 0.20621 0.621064 0.539047
653 1 0.345742 0.622527 0.549334
708 1 0.414186 0.663715 0.536286
1879 1 0.0666582 0.698367 0.517209
1384 1 0.145089 0.674339 0.517931
441 1 0.275101 0.68277 0.544001
878 1 0.352553 0.696669 0.500622
431 1 0.122896 0.755959 0.520146
476 1 0.224128 0.73953 0.515085
1068 1 0.422116 0.748549 0.530633
1745 1 0.0555746 0.783713 0.545229
108 1 0.439131 0.82968 0.53271
1147 1 0.301014 0.847738 0.504613
1215 1 0.356357 0.886271 0.549392
1113 1 0.116882 0.93138 0.549572
1044 1 0.192833 0.918825 0.52288
613 1 0.287076 0.931598 0.510766
1291 1 0.495412 0.927763 0.526224
1607 1 0.404854 0.958387 0.522343
1526 1 0.0222568 0.0423655 0.561055
695 1 0.307496 0.0327259 0.555664
774 1 0.293197 0.100382 0.579679
230 1 0.375642 0.0632158 0.589692
888 1 0.44776 0.10405 0.55612
1254 1 0.214999 0.127012 0.610803
776 1 0.252669 0.210178 0.601242
131 1 0.367194 0.1806 0.590704
474 1 0.456021 0.182151 0.57943
927 1 0.0399772 0.23546 0.578799
1813 1 0.178771 0.231069 0.565359
1728 1 0.194644 0.294108 0.607552
756 1 0.271924 0.299151 0.58018
1855 1 0.383268 0.286741 0.610642
94 1 0.13783 0.356403 0.55988
1341 1 0.211102 0.387505 0.565639
1006 1 0.326845 0.375704 0.609676
1317 1 0.408752 0.345686 0.569959
608 1 0.491885 0.348742 0.586689
17 1 0.269246 0.439778 0.604983
1577 1 0.379225 0.421245 0.565909
1223 1 0.447403 0.413304 0.604236
1501 1 0.0663032 0.496237 0.600132
244 1 0.133615 0.460442 0.570803
569 1 0.214121 0.488543 0.574908
1272 1 0.410994 0.485716 0.606473
341 1 0.156607 0.545323 0.557817
1166 1 0.300187 0.516227 0.594916
1824 1 0.477009 0.507665 0.571233
445 1 0.214475 0.56512 0.60803
1842 1 0.285962 0.597953 0.596429
1129 1 0.152679 0.617774 0.601325
538 1 0.492761 0.65771 0.59178
1072 1 0.0281348 0.668358 0.603915
554 1 0.104864 0.6999 0.587767
1498 1 0.18585 0.718913 0.586792
1942 1 0.397554 0.709156 0.599418
1036 1 0.328665 0.742154 0.569973
704 1 0.479718 0.753189 0.594526
1678 1 0.125014 0.785386 0.597187
1322 1 0.194899 0.801802 0.563774
130 1 0.279574 0.803426 0.569486
321 1 0.375831 0.812003 0.587355
1148 1 0.0530496 0.870072 0.556004
767 1 0.153612 0.867226 0.582268
1876 1 0.251741 0.8855 0.565095
1595 1 0.498763 0.838598 0.596849
1161 1 0.0218652 0.944299 0.572294
1584 1 0.431798 0.902088 0.572017
1477 1 0.0792072 0.998189 0.57955
1530 1 0.237111 0.993359 0.559184
854 1 0.318287 0.959724 0.582749
270 1 0.391993 0.972708 0.607395
550 1 0.469064 0.986658 0.594373
1517 1 0.104156 0.00431817 0.659851
267 1 0.162805 0.0290997 0.616113
1757 1 0.21609 0.000407973 0.664464
1621 1 0.324291 0.0220485 0.634484
619 1 0.419724 0.0363264 0.655315
266 1 0.0635832 0.0660829 0.627804
84 1 0.136871 0.100615 0.618974
1837 1 0.259114 0.0878977 0.659675
261 1 0.348243 0.098938 0.660131
1919 1 0.485623 0.059899 0.617572
1550 1 0.0469067 0.160189 0.611894
790 1 0.422353 0.117469 0.6359
734 1 0.164183 0.180897 0.633934
2037 1 0.30525 0.167854 0.640862
947 1 0.0299419 0.228006 0.654521
1836 1 0.104283 0.226711 0.617591
1089 1 0.194384 0.245547 0.66388
19 1 0.313049 0.245002 0.637894
1545 1 0.436449 0.232853 0.635113
1518 1 0.115672 0.31215 0.6385
1107 1 0.457206 0.307784 0.649572
855 1 0.0444631 0.338854 0.616415
1194 1 0.1756 0.366219 0.632839
865 1 0.25196 0.360297 0.633605
1697 1 0.487741 0.388219 0.66317
1424 1 0.0179265 0.416079 0.623705
1057 1 0.0999073 0.39855 0.611949
1030 1 0.112664 0.453279 0.664654
1042 1 0.193582 0.453619 0.642692
1159 1 0.337833 0.465266 0.639486
356 1 0.4682 0.472663 0.660213
422 1 0.131734 0.543346 0.635792
1267 1 0.374911 0.554312 0.626927
1695 1 0.457384 0.551625 0.629728
844 1 0.0449595 0.582102 0.612907
1704 1 0.104144 0.615737 0.662073
1271 1 0.231127 0.657167 0.619718
1106 1 0.344563 0.623646 0.661562
1169 1 0.417497 0.624651 0.622754
1811 1 0.314945 0.673466 0.613922
1456 1 0.0458064 0.760246 0.637509
1440 1 0.181477 0.776343 0.655646
139 1 0.25993 0.75361 0.6373
640 1 0.414235 0.761738 0.658817
152 1 0.336355 0.780895 0.649925
997 1 0.0709589 0.842936 0.624429
1433 1 0.211473 0.846116 0.63363
493 1 0.291221 0.856409 0.626612
660 1 0.447466 0.854929 0.664401
912 1 0.0817805 0.934945 0.630825
1412 1 0.247583 0.93626 0.631927
1104 1 0.326853 0.923163 0.658012
1794 1 0.404222 0.922949 0.66374
1720 1 0.0176415 0.987318 0.638483
788 1 0.159284 0.948643 0.622006
1257 1 0.00617748 0.0473635 0.692442
485 1 0.163243 0.0430218 0.710541
1420 1 0.365309 0.0030816 0.712194
1066 1 0.084809 0.067016 0.702228
394 1 0.313281 0.0590013 0.713105
1864 1 0.475904 0.0686434 0.7188
1878 1 0.0285473 0.16099 0.700971
1600 1 0.0994337 0.150634 0.672596
1797 1 0.190267 0.113242 0.690401
903 1 0.461682 0.163734 0.694806
1581 1 0.240084 0.183757 0.717728
889 1 0.376439 0.18784 0.689855
315 1 0.120915 0.247565 0.692354
378 1 0.281788 0.257379 0.7157
632 1 0.3618 0.266996 0.693128
857 1 0.435316 0.23962 0.713972
1192 1 0.0531535 0.296734 0.689355
560 1 0.140703 0.321831 0.720072
1363 1 0.221945 0.317507 0.68834
197 1 0.299684 0.318738 0.67448
1270 1 0.0712164 0.384358 0.68021
326 1 0.391008 0.350953 0.676664
1780 1 0.156713 0.397797 0.7057
1018 1 0.241173 0.395492 0.703086
382 1 0.334962 0.389905 0.706209
1466 1 0.398885 0.427649 0.66956
1511 1 0.0410674 0.463285 0.694892
1274 1 0.271625 0.468052 0.680756
547 1 0.343108 0.473486 0.720725
1156 1 0.0592684 0.53841 0.674231
1295 1 0.130125 0.530793 0.711694
277 1 0.214743 0.521652 0.684151
410 1 0.315985 0.540892 0.673533
513 1 0.399686 0.521834 0.695903
503 1 0.484839 0.53545 0.707708
2 1 0.179414 0.597381 0.687211
361 1 0.258879 0.597491 0.673574
1712 1 0.0325703 0.671449 0.68675
861 1 0.0975585 0.715504 0.685303
141 1 0.163363 0.675357 0.666669
257 1 0.274559 0.673268 0.679645
346 1 0.358745 0.696357 0.685124
1404 1 0.438736 0.671161 0.687763
1343 1 0.295497 0.741385 0.707727
1564 1 0.00635089 0.829906 0.692567
1482 1 0.0901384 0.806328 0.689793
1489 1 0.251713 0.812363 0.701989
496 1 0.49342 0.786172 0.667302
1418 1 0.166897 0.83434 0.707419
1190 1 0.371407 0.84666 0.666954
1835 1 0.0853819 0.904366 0.699952
292 1 0.167332 0.924131 0.695075
120 1 0.241683 0.892406 0.700422
1589 1 0.0378315 0.969086 0.71295
233 1 0.290768 0.985595 0.698984
1354 1 0.488871 0.957426 0.673652
1390 1 0.0255405 0.0297881 0.761927
853 1 0.108777 0.0468714 0.775932
1690 1 0.236077 0.0530748 0.732834
1200 1 0.295051 0.00324814 0.773613
1344 1 0.422636 0.031908 0.764655
99 1 0.399152 0.096344 0.724137
698 1 0.0656765 0.128801 0.771242
1048 1 0.140854 0.113611 0.759225
612 1 0.223298 0.122885 0.763578
1784 1 0.326182 0.138475 0.723913
429 1 0.0689832 0.212003 0.754701
770 1 0.159723 0.185347 0.731976
2014 1 0.426107 0.17397 0.771555
728 1 0.491094 0.214413 0.759462
222 1 0.20456 0.252467 0.742139
308 1 0.346685 0.227913 0.757412
548 1 0.0844278 0.28856 0.769277
13 1 0.310704 0.314871 0.763235
618 1 0.467447 0.302973 0.755716
1734 1 0.027732 0.364507 0.73856
1491 1 0.100942 0.36756 0.772714
1335 1 0.196403 0.38531 0.772705
1629 1 0.449606 0.378633 0.733079
1821 1 0.0148519 0.440411 0.765003
334 1 0.0983166 0.440017 0.741191
1617 1 0.280169 0.440984 0.752166
300 1 0.185284 0.467469 0.730359
819 1 0.424346 0.45785 0.738874
1224 1 0.497256 0.470552 0.756386
489 1 0.0690183 0.530056 0.760075
1446 1 0.273786 0.527003 0.746167
1930 1 0.423737 0.533433 0.773154
763 1 0.0545368 0.605072 0.724137
813 1 0.188639 0.56385 0.764217
858 1 0.348651 0.556346 0.741779
200 1 0.431276 0.596867 0.722411
843 1 0.129662 0.645504 0.730573
1910 1 0.211223 0.653858 0.730599
747 1 0.305387 0.619286 0.746225
1538 1 0.0661233 0.684752 0.757901
400 1 0.389618 0.670611 0.756627
1580 1 0.0512691 0.765572 0.741161
1688 1 0.158597 0.727763 0.732305
769 1 0.23692 0.730357 0.759044
235 1 0.366751 0.760366 0.730471
1340 1 0.490345 0.759389 0.741802
1347 1 0.429516 0.822198 0.735845
828 1 0.0617718 0.856216 0.761307
1731 1 0.216274 0.859879 0.774884
684 1 0.317105 0.850431 0.723719
1001 1 0.00468436 0.89869 0.723047
1994 1 0.13048 0.895378 0.76375
1918 1 0.285248 0.926411 0.764777
1973 1 0.362018 0.914756 0.731725
1641 1 0.477992 0.894959 0.727231
1085 1 0.124327 0.97867 0.735147
1338 1 0.223345 0.972256 0.735016
742 1 0.433444 0.954072 0.746115
909 1 0.499325 0.999399 0.743974
578 1 0.18295 0.0155894 0.789641
403 1 0.208683 0.0857014 0.829592
1201 1 0.282187 0.0844712 0.803154
1319 1 0.353052 0.0563485 0.778416
2021 1 0.429425 0.0973622 0.800219
654 1 0.000291516 0.162255 0.803874
868 1 0.28304 0.164489 0.791628
1081 1 0.362483 0.14116 0.790758
744 1 0.493598 0.136697 0.780791
284 1 0.192506 0.176844 0.805084
1261 1 0.133735 0.231812 0.790981
540 1 0.276303 0.247624 0.8012
140 1 0.354538 0.265429 0.827494
225 1 0.430571 0.249188 0.796852
286 1 0.156729 0.316249 0.799992
1229 1 0.236017 0.314461 0.788145
1593 1 0.39187 0.317881 0.785435
953 1 0.282759 0.380697 0.802797
155 1 0.0612161 0.415711 0.828223
175 1 0.377402 0.398485 0.80389
627 1 0.45487 0.418187 0.80221
1594 1 0.140287 0.45846 0.80886
934 1 0.219994 0.446813 0.812393
1062 1 0.293659 0.476979 0.819547
900 1 0.383551 0.480167 0.812964
873 1 0.128471 0.542442 0.80909
1318 1 0.233296 0.527805 0.818385
816 1 0.489864 0.552248 0.815726
796 1 0.0393564 0.569663 0.826201
498 1 0.314227 0.555998 0.812754
969 1 0.368593 0.605245 0.808495
24 1 0.101275 0.611766 0.809048
74 1 0.240106 0.614585 0.803709
829 1 0.449915 0.622291 0.792248
673 1 0.173677 0.677648 0.791136
179 1 0.303808 0.702098 0.778361
1311 1 0.444767 0.715749 0.789555
1778 1 0.0176362 0.734641 0.804877
137 1 0.1117 0.746716 0.806894
1933 1 0.367789 0.736845 0.808319
56 1 0.04956 0.802392 0.831445
502 1 0.12763 0.816767 0.781777
101 1 0.194884 0.790717 0.807011
1916 1 0.295686 0.784541 0.778812
1245 1 0.438582 0.792796 0.810715
1296 1 0.0882419 0.873838 0.832724
1043 1 0.257118 0.840656 0.833036
1862 1 0.369407 0.835124 0.786511
1548 1 0.430956 0.881443 0.79345
896 1 0.00833138 0.901122 0.812107
288 1 0.187873 0.934836 0.806187
254 1 0.347683 0.906561 0.81847
276 1 0.0102027 0.999006 0.832908
1407 1 0.0640661 0.958796 0.791692
1566 1 0.259977 0.956562 0.829141
1047 1 0.370627 0.979381 0.793762
537 1 0.438834 0.950213 0.830942
1656 1 0.498361 0.999197 0.823257
1875 1 0.111705 0.00427368 0.84408
821 1 0.226096 0.00901019 0.872798
1439 1 0.310799 0.0148486 0.856919
596 1 0.413205 0.033458 0.847739
103 1 0.0163541 0.0823949 0.842793
1299 1 0.100263 0.0936506 0.846466
1639 1 0.388613 0.108396 0.867232
785 1 0.487455 0.075148 0.852144
1339 1 0.0456152 0.153727 0.866464
1761 1 0.235516 0.16086 0.870209
1946 1 0.306903 0.118676 0.880337
1597 1 0.117096 0.170884 0.838998
551 1 0.313687 0.202349 0.854467
957 1 0.394438 0.182993 0.849432
614 1 0.47822 0.200835 0.839126
16 1 0.0458492 0.226552 0.833466
1772 1 0.12222 0.266543 0.86139
1997 1 0.198451 0.246253 0.835008
51 1 0.450808 0.268214 0.874775
757 1 0.00642027 0.301283 0.843913
1655 1 0.259432 0.308087 0.866372
22 1 0.0802781 0.343939 0.869569
1537 1 0.14419 0.384564 0.838216
1379 1 0.221139 0.377086 0.85236
1977 1 0.345006 0.338569 0.854371
1838 1 0.423534 0.33882 0.857958
1199 1 0.193778 0.4394 0.886466
247 1 0.309151 0.417446 0.876709
1102 1 0.388964 0.431673 0.87543
48 1 0.0654399 0.493108 0.83561
4 1 0.464964 0.482669 0.847643
9 1 0.162518 0.508141 0.866638