ITEM: TIMESTEP
100000
ITEM: NUMBER OF ATOMS
2048
ITEM: BOX BOUNDS pp pp pp
0.0000000000000000e+00 1.1351867295763070e+01
0.0000000000000000e+00 1.1351867295763070e+01
0.0000000000000000e+00 1.1351867295763070e+01
ITEM: ATOMS id type xs ys zs
1415 1 0.196947 0.497814 0.436302
279 1 0.686259 0.00169125 0.308707
58 1 0.813414 0.184169 -0.000587696
1171 1 0.560573 0.499474 0.186163
1289 1 0.248108 0.496013 0.245701
618 1 0.310109 0.434312 0.496528
4 1 0.00220577 0.058505 0.0636517
94 1 0.937474 0.31219 -0.00125552
8 1 0.125041 0.0662376 0.0667902
12 1 0.252169 0.0655714 0.0651534
16 1 0.374679 0.0619048 0.0619778
47 1 0.443501 0.123459 0.0670373
20 1 0.505294 0.0637491 0.0632151
28 1 0.744703 0.0565238 0.0620779
101 1 0.12015 0.378945 -0.000101513
43 1 0.310634 0.131575 0.0604754
52 1 0.500636 0.185975 0.0589814
1181 1 0.869297 0.494014 0.125932
56 1 0.630689 0.182277 0.0671486
23 1 0.685376 -0.00173434 0.0586125
55 1 0.686584 0.119054 0.0619591
405 1 0.624922 0.00667692 0.371737
557 1 0.378909 0.12022 0.500471
77 1 0.379161 0.248872 0.00519958
622 1 0.437118 0.437717 0.495562
273 1 0.500807 -0.00131442 0.244991
1173 1 0.623693 0.500142 0.124489
71 1 0.191783 0.249584 0.0588655
630 1 0.686744 0.431519 0.499451
82 1 0.566262 0.321501 0.00134487
48 1 0.383258 0.18561 0.0644177
14 1 0.444225 0.0624874 0.00757459
122 1 0.809998 0.436065 0.00158389
64 1 0.873039 0.179872 0.0624493
554 1 0.311657 0.185469 0.498274
1 1 0.0057108 0.00396006 0.00163311
79 1 0.439013 0.252128 0.0654597
267 1 0.308329 -0.000887926 0.311261
84 1 0.506681 0.313839 0.0597854
118 1 0.691856 0.435753 0.00472572
399 1 0.436675 0.00249412 0.431457
92 1 0.754588 0.307649 0.0596803
95 1 0.939804 0.241414 0.0622749
7 1 0.18836 0.00447066 0.0598886
76 1 0.246438 0.313917 0.0617711
45 1 0.377451 0.118201 0.0027206
115 1 0.563445 0.379181 0.0655608
121 1 0.749494 0.368281 8.00065e-05
123 1 0.809403 0.369883 0.0669738
96 1 0.87332 0.3167 0.058514
68 1 0.995092 0.30603 0.0614031
99 1 0.0588729 0.371442 0.0637937
133 1 0.127463 0.00259779 0.124647
111 1 0.443149 0.366503 0.060277
116 1 0.50817 0.438468 0.0607624
120 1 0.624601 0.431375 0.0599011
257 1 -0.00123146 0.00363168 0.245157
621 1 0.375429 0.37161 0.495365
104 1 0.120161 0.436637 0.0616719
1307 1 0.811329 0.497515 0.312109
403 1 0.560115 -0.000779035 0.432647
391 1 0.187852 0.00256432 0.439663
112 1 0.369707 0.438717 0.0602989
1155 1 0.0621618 0.495899 0.187128
467 1 0.55416 0.244739 0.435179
585 1 0.250939 0.241885 0.49871
385 1 1.00087 0.00265073 0.375283
1053 1 0.869953 0.498263 0.00498011
128 1 0.867726 0.435603 0.0660489
100 1 1.00111 0.438309 0.0624246
130 1 0.0580274 0.0560188 0.125673
134 1 0.191362 0.0620957 0.126533
113 1 0.506778 0.376032 -0.00134809
1291 1 0.313829 0.495682 0.308399
142 1 0.442326 0.0581504 0.117499
463 1 0.437168 0.244181 0.433691
614 1 0.190421 0.433443 0.496138
32 1 0.873548 0.0549225 0.0620647
35 1 0.0641001 0.123482 0.0689576
165 1 0.129977 0.128351 0.123355
138 1 0.31141 0.0602679 0.128109
51 1 0.565118 0.122453 0.0590045
24 1 0.624766 0.0636091 0.0630523
158 1 0.932253 0.0577867 0.127494
40 1 0.125141 0.194387 0.0651554
39 1 0.191591 0.126232 0.0612644
166 1 0.18649 0.192188 0.128207
44 1 0.251438 0.190644 0.0648261
169 1 0.251919 0.123611 0.128199
173 1 0.372256 0.119632 0.118198
174 1 0.446726 0.186524 0.123857
178 1 0.56469 0.187933 0.120934
59 1 0.809652 0.120224 0.0653253
189 1 0.872802 0.126126 0.123677
63 1 0.939473 0.119826 0.0611724
170 1 0.317098 0.190553 0.121797
87 1 0.68815 0.24614 0.0598468
182 1 0.692222 0.185231 0.126779
60 1 0.750121 0.186434 0.0635602
36 1 0.00162334 0.18613 0.0595069
67 1 0.0594817 0.24859 0.0581949
75 1 0.313856 0.250978 0.0618923
209 1 0.49718 0.253062 0.128359
83 1 0.560282 0.246838 0.0640051
88 1 0.624644 0.311059 0.0637967
91 1 0.812295 0.249354 0.0558558
218 1 0.822994 0.312152 0.129894
72 1 0.122924 0.314629 0.0638779
198 1 0.186727 0.315432 0.122459
107 1 0.313084 0.371738 0.0676463
80 1 0.380433 0.309186 0.0665251
241 1 0.503771 0.375088 0.128305
119 1 0.685338 0.372412 0.0611798
253 1 0.878947 0.376657 0.125553
225 1 0.99671 0.37295 0.122723
226 1 0.0592618 0.431693 0.120984
229 1 0.121889 0.370163 0.129192
103 1 0.185279 0.37785 0.0672378
237 1 0.375654 0.37628 0.12124
238 1 0.431726 0.434198 0.118495
249 1 0.74555 0.37802 0.125018
250 1 0.809356 0.437826 0.132356
127 1 0.937192 0.370423 0.0617814
108 1 0.24804 0.441805 0.0623458
409 1 0.744754 0.00117691 0.36955
542 1 0.935152 0.0660326 0.500331
246 1 0.688165 0.438655 0.120082
124 1 0.749554 0.440813 0.0616567
254 1 0.936914 0.435889 0.118457
561 1 0.498579 0.119878 0.498585
136 1 0.124777 0.0599811 0.185286
500 1 0.504182 0.438965 0.437033
1411 1 0.0616982 0.502206 0.441126
146 1 0.566291 0.059444 0.127456
70 1 0.18548 0.314798 0.00176902
152 1 0.623379 0.0643616 0.186354
74 1 0.313884 0.317548 0.00105524
154 1 0.816165 0.0623624 0.121664
160 1 0.871555 0.0597615 0.184418
135 1 0.192896 -0.00272906 0.186968
401 1 0.496163 0.00160408 0.368647
132 1 0.992815 0.0595499 0.183888
167 1 0.188844 0.126827 0.186805
140 1 0.251937 0.0622975 0.184634
144 1 0.377727 0.0617856 0.177874
181 1 0.62602 0.122857 0.124797
150 1 0.684327 0.0583939 0.123978
183 1 0.690153 0.125647 0.190202
187 1 0.815821 0.123883 0.183297
191 1 0.932443 0.120471 0.182969
162 1 0.0634762 0.190794 0.126253
163 1 0.0622644 0.117693 0.179607
168 1 0.124095 0.183607 0.187991
176 1 0.374002 0.188434 0.188867
177 1 0.506602 0.126835 0.123986
184 1 0.630709 0.187088 0.183974
185 1 0.751954 0.127793 0.128217
161 1 -0.000116281 0.12915 0.124679
164 1 0.995203 0.189322 0.182456
205 1 0.38089 0.249465 0.127366
180 1 0.505584 0.186875 0.184677
217 1 0.75237 0.247184 0.122947
186 1 0.81091 0.190764 0.122793
190 1 0.93432 0.184722 0.124622
195 1 0.0564282 0.251407 0.187287
197 1 0.120184 0.254865 0.122563
199 1 0.184446 0.247068 0.187236
201 1 0.249255 0.249723 0.125116
203 1 0.311649 0.249332 0.186077
206 1 0.43679 0.318126 0.129084
212 1 0.504206 0.318426 0.190874
211 1 0.561788 0.250744 0.186399
213 1 0.624848 0.246018 0.120732
214 1 0.68618 0.307807 0.123019
220 1 0.752317 0.311489 0.179739
221 1 0.874817 0.249437 0.118269
193 1 1.00186 0.248558 0.124868
194 1 0.0581408 0.311633 0.122065
200 1 0.12455 0.309514 0.187918
202 1 0.312155 0.311256 0.129905
239 1 0.43782 0.379175 0.189794
210 1 0.566722 0.30678 0.121972
216 1 0.626396 0.310296 0.182135
222 1 0.935253 0.305002 0.125912
227 1 0.0661041 0.38046 0.197628
230 1 0.185066 0.441575 0.123476
233 1 0.251221 0.374147 0.12621
234 1 0.310156 0.436492 0.124448
243 1 0.570323 0.373414 0.185547
245 1 0.626376 0.375216 0.124033
247 1 0.686241 0.37853 0.18807
251 1 0.810048 0.37545 0.191535
256 1 0.869094 0.441171 0.191029
586 1 0.324029 0.307959 0.498304
232 1 0.126108 0.439713 0.186961
1165 1 0.371851 0.501536 0.122335
242 1 0.566769 0.435314 0.129564
511 1 0.944131 0.37673 0.439424
262 1 0.184456 0.0638175 0.248727
1295 1 0.433361 0.501367 0.31107
109 1 0.376837 0.378444 0.00355679
578 1 0.0625296 0.311362 0.494466
451 1 0.0646703 0.248149 0.435061
156 1 0.75377 0.0618426 0.180595
258 1 0.0639072 0.0625379 0.247755
293 1 0.118235 0.12663 0.243479
171 1 0.316832 0.125365 0.181992
148 1 0.502353 0.0604381 0.18512
282 1 0.807217 0.0627573 0.253143
289 1 0.00498418 0.122531 0.247662
172 1 0.25387 0.183703 0.184048
175 1 0.441097 0.125103 0.181873
179 1 0.563134 0.128218 0.187536
310 1 0.692952 0.186377 0.253966
313 1 0.751787 0.125966 0.253007
192 1 0.880615 0.187825 0.18483
318 1 0.936525 0.183165 0.246271
290 1 0.0576796 0.190509 0.244796
294 1 0.183926 0.189549 0.248359
333 1 0.377455 0.252903 0.244115
207 1 0.439547 0.254036 0.187015
215 1 0.691421 0.251293 0.191444
188 1 0.750078 0.190727 0.189028
345 1 0.749987 0.254996 0.250084
314 1 0.817027 0.18627 0.248128
325 1 0.12396 0.250624 0.243657
337 1 0.49946 0.252864 0.246005
338 1 0.567658 0.316541 0.251843
219 1 0.815035 0.247643 0.184672
223 1 0.933385 0.252677 0.191543
196 1 0.00107159 0.31461 0.185399
322 1 0.0597645 0.312775 0.250872
326 1 0.191299 0.311378 0.250575
204 1 0.250722 0.311606 0.187001
208 1 0.37609 0.316839 0.186572
342 1 0.680597 0.316492 0.247306
346 1 0.811093 0.311557 0.248419
224 1 0.878287 0.315989 0.189065
350 1 0.937149 0.313493 0.250875
228 1 1.00254 0.435316 0.184631
357 1 0.132931 0.372268 0.250846
231 1 0.186249 0.37497 0.182429
235 1 0.310583 0.376961 0.18941
240 1 0.37725 0.437309 0.17953
369 1 0.499952 0.377295 0.254125
374 1 0.683528 0.435432 0.250616
377 1 0.744569 0.375966 0.250203
378 1 0.810664 0.435586 0.253116
255 1 0.940321 0.37336 0.190595
550 1 0.185346 0.189005 0.499109
420 1 0.00208647 0.195233 0.43716
236 1 0.247198 0.433515 0.184327
565 1 0.62409 0.120456 0.489509
244 1 0.507738 0.437269 0.190124
370 1 0.56141 0.43843 0.250677
248 1 0.625506 0.44209 0.188088
252 1 0.74961 0.435963 0.192198
538 1 0.81302 0.0677738 0.495473
66 1 0.0594767 0.306965 0.00266096
3 1 0.0695037 0.00502065 0.063342
634 1 0.809894 0.440268 0.500179
264 1 0.117803 0.0569473 0.308737
266 1 0.307341 0.0630218 0.249641
395 1 0.312031 0.00349779 0.440124
278 1 0.687446 0.0640191 0.245822
284 1 0.747826 0.0649531 0.312417
291 1 0.0653021 0.125105 0.309057
297 1 0.245347 0.124055 0.248669
301 1 0.373711 0.124358 0.24756
270 1 0.437141 0.05874 0.241344
274 1 0.563337 0.0618574 0.251239
309 1 0.630431 0.124901 0.249424
288 1 0.880417 0.0635526 0.316828
286 1 0.939691 0.0590431 0.248497
295 1 0.174788 0.119192 0.308676
298 1 0.311239 0.184207 0.243938
299 1 0.309005 0.120944 0.312334
305 1 0.502157 0.125902 0.243901
316 1 0.752381 0.196326 0.315042
317 1 0.87228 0.117742 0.252219
292 1 -0.000705071 0.187173 0.306268
296 1 0.119413 0.19146 0.313266
331 1 0.30963 0.248261 0.31383
304 1 0.373422 0.190432 0.307107
302 1 0.437359 0.191072 0.244031
306 1 0.562244 0.189419 0.248433
343 1 0.688241 0.250959 0.316236
347 1 0.817581 0.246742 0.316287
349 1 0.873059 0.249098 0.247419
321 1 0.996859 0.254423 0.249902
329 1 0.250433 0.254468 0.244781
334 1 0.437937 0.318988 0.247771
341 1 0.633488 0.246339 0.255126
344 1 0.624331 0.311459 0.312178
348 1 0.74932 0.313772 0.311442
352 1 0.87199 0.315819 0.31095
351 1 0.934184 0.248341 0.307505
359 1 0.187616 0.375845 0.313125
330 1 0.31153 0.318156 0.251385
336 1 0.375706 0.311609 0.314066
381 1 0.873485 0.37724 0.24847
353 1 0.997518 0.381815 0.247164
354 1 0.0642188 0.43716 0.257112
361 1 0.251204 0.376636 0.250761
365 1 0.373768 0.381101 0.248893
367 1 0.444976 0.374433 0.312965
371 1 0.56003 0.375044 0.316917
373 1 0.623894 0.38122 0.253549
375 1 0.685992 0.378286 0.315854
380 1 0.751903 0.433775 0.313082
384 1 0.873007 0.434314 0.317569
382 1 0.936524 0.440918 0.246165
383 1 0.943547 0.376329 0.309926
541 1 0.874493 0.00112348 0.48854
358 1 0.187059 0.437298 0.242752
362 1 0.310073 0.432998 0.252283
366 1 0.437084 0.435877 0.251497
376 1 0.617998 0.438765 0.319721
447 1 0.943343 0.130027 0.438792
390 1 0.184877 0.0627528 0.370778
507 1 0.81293 0.369713 0.439715
1039 1 0.439611 0.496376 0.0612109
410 1 0.805244 0.0613603 0.374704
260 1 0.00231051 0.0648158 0.311172
386 1 0.0599293 0.0619625 0.377114
268 1 0.244538 0.0633964 0.311359
272 1 0.376279 0.0616595 0.310742
398 1 0.436967 0.0601314 0.369712
276 1 0.500225 0.0676718 0.309262
433 1 0.495932 0.124052 0.373024
280 1 0.625635 0.0618715 0.310581
311 1 0.6825 0.124193 0.3143
315 1 0.812499 0.123578 0.31207
319 1 0.942119 0.125901 0.311157
418 1 0.058601 0.189568 0.373875
421 1 0.122121 0.127521 0.375567
426 1 0.316586 0.182411 0.374107
303 1 0.439285 0.124313 0.300357
308 1 0.500395 0.182679 0.305439
307 1 0.566293 0.125294 0.3049
312 1 0.630429 0.187411 0.315101
441 1 0.752278 0.126057 0.372852
323 1 0.0625975 0.250123 0.314897
422 1 0.184481 0.182517 0.375758
300 1 0.250981 0.187425 0.3095
461 1 0.370434 0.246598 0.375659
339 1 0.564966 0.246902 0.310318
442 1 0.813074 0.189929 0.373744
320 1 0.879719 0.188398 0.312243
449 1 0.00109859 0.251998 0.37335
328 1 0.126117 0.306884 0.305494
453 1 0.127908 0.247367 0.376367
327 1 0.186227 0.246343 0.313844
457 1 0.252846 0.24433 0.377818
458 1 0.31357 0.307916 0.374377
335 1 0.441601 0.251001 0.301822
470 1 0.681964 0.311839 0.376484
473 1 0.747046 0.256722 0.379394
474 1 0.812112 0.315267 0.377024
477 1 0.876392 0.253348 0.375271
481 1 0.00719106 0.368956 0.375759
485 1 0.128833 0.371551 0.369016
332 1 0.250709 0.310704 0.312088
363 1 0.309026 0.371938 0.320349
462 1 0.444817 0.30949 0.369486
340 1 0.501069 0.310794 0.306433
501 1 0.62311 0.375592 0.375697
379 1 0.807932 0.375899 0.316166
324 1 0.000328543 0.312504 0.311613
355 1 0.0696233 0.367016 0.315066
364 1 0.249846 0.437361 0.313935
502 1 0.684733 0.440938 0.376206
505 1 0.747827 0.374642 0.376818
509 1 0.878687 0.369938 0.375756
356 1 1.00339 0.439078 0.317963
482 1 0.0672398 0.438912 0.370251
448 1 0.873987 0.18736 0.4381
360 1 0.129398 0.443531 0.308769
37 1 0.133129 0.127917 0.00456507
368 1 0.378053 0.435952 0.30938
372 1 0.498826 0.440868 0.315673
261 1 0.126253 0.00198059 0.24651
498 1 0.558583 0.443017 0.376376
1297 1 0.499629 0.499816 0.254278
496 1 0.370927 0.439286 0.437318
1305 1 0.749625 0.496798 0.246641
394 1 0.313205 0.0629119 0.371799
435 1 0.563507 0.125499 0.431572
1169 1 0.494635 0.493094 0.126985
491 1 0.31158 0.369926 0.438961
488 1 0.12752 0.438621 0.433979
425 1 0.246493 0.12667 0.370194
429 1 0.377395 0.123477 0.377296
402 1 0.555432 0.0668023 0.371505
437 1 0.629999 0.123452 0.376441
406 1 0.68579 0.0648218 0.372613
443 1 0.807147 0.126646 0.435364
445 1 0.883714 0.127946 0.375542
414 1 0.938835 0.0646892 0.37764
417 1 0.0024741 0.12896 0.370709
424 1 0.120463 0.185394 0.438422
423 1 0.187621 0.123935 0.435
431 1 0.438729 0.119163 0.433301
434 1 0.56086 0.183577 0.370641
440 1 0.625552 0.186033 0.431954
438 1 0.691378 0.192561 0.376696
446 1 0.937387 0.189589 0.377688
428 1 0.253258 0.184117 0.434687
432 1 0.373859 0.181758 0.436215
430 1 0.436952 0.184263 0.368506
465 1 0.497644 0.242539 0.375255
444 1 0.753946 0.193126 0.44109
475 1 0.81763 0.256364 0.441751
450 1 0.0715188 0.309235 0.372943
456 1 0.124678 0.310514 0.43986
455 1 0.195847 0.250408 0.436276
460 1 0.255778 0.307425 0.437782
459 1 0.311431 0.243715 0.439831
466 1 0.556408 0.304088 0.371484
469 1 0.623226 0.249844 0.37297
476 1 0.74851 0.317016 0.437333
479 1 0.933858 0.251984 0.437559
478 1 0.940477 0.309946 0.372124
452 1 0.00173925 0.312135 0.433026
483 1 0.070931 0.380745 0.433801
454 1 0.185885 0.308748 0.37765
493 1 0.377298 0.372171 0.37123
464 1 0.386063 0.310542 0.43278
495 1 0.434817 0.378518 0.432434
468 1 0.492971 0.315476 0.439479
503 1 0.68728 0.378881 0.435104
480 1 0.878673 0.316246 0.436645
489 1 0.24665 0.366741 0.377212
490 1 0.309286 0.436879 0.374235
494 1 0.434553 0.438326 0.368736
497 1 0.503234 0.382377 0.378384
504 1 0.619423 0.440967 0.439946
506 1 0.806328 0.436148 0.380924
472 1 0.62897 0.318143 0.443707
499 1 0.563463 0.374403 0.442413
486 1 0.187627 0.438239 0.371376
492 1 0.253828 0.429534 0.43691
1303 1 0.68665 0.495815 0.30877
1153 1 0.996501 0.498014 0.128078
85 1 0.624552 0.249568 0.00403707
436 1 0.500311 0.18029 0.43337
508 1 0.746341 0.440213 0.43741
512 1 0.872245 0.434809 0.432844
510 1 0.937406 0.431376 0.378296
484 1 0.00723039 0.436194 0.433825
487 1 0.18685 0.374851 0.440746
396 1 0.252208 0.0674882 0.433551
400 1 0.372836 0.0629831 0.435846
404 1 0.500084 0.0572618 0.440083
388 1 0.995136 0.0620353 0.440668
412 1 0.749624 0.0679392 0.437479
613 1 0.123833 0.374351 0.500467
416 1 0.875745 0.0711463 0.436236
392 1 0.125904 0.0651464 0.433332
427 1 0.311485 0.125217 0.431351
471 1 0.683495 0.254615 0.441723
408 1 0.614734 0.0568568 0.432915
439 1 0.693019 0.130268 0.43623
419 1 0.0586759 0.124757 0.434148
1421 1 0.374417 0.499487 0.375145
617 1 0.25007 0.3702 0.496023
50 1 0.562288 0.187197 -0.00232513
275 1 0.554422 -0.000582863 0.309346
594 1 0.561816 0.311415 0.498388
1299 1 0.56354 0.499835 0.312377
397 1 0.375163 0.000852518 0.372492
1167 1 0.436879 0.489972 0.19017
105 1 0.24565 0.373734 0.00150527
1549 1 0.376924 0.497032 0.498867
126 1 0.938459 0.44691 0.00146979
61 1 0.875621 0.116559 0.0041664
1051 1 0.813399 0.498048 0.0651597
1311 1 0.939218 0.495399 0.308656
1293 1 0.37574 0.495294 0.244889
62 1 0.931219 0.182103 0.0006033
106 1 0.308405 0.437417 0.000430111
534 1 0.688795 0.0614783 0.495327
413 1 0.880025 0.0042866 0.378519
98 1 0.0579252 0.440417 0.00446881
601 1 0.751139 0.255647 0.501687
1037 1 0.378747 0.496809 -0.000183968
281 1 0.750934 0.00453969 0.244696
1157 1 0.118184 0.493949 0.123712
263 1 0.184418 -0.00128511 0.313454
1419 1 0.305962 0.494941 0.439391
1439 1 0.937222 0.492592 0.438076
589 1 0.377843 0.242199 0.497112
86 1 0.69091 0.311269 0.00357603
30 1 0.943483 0.0607348 0.0034045
637 1 0.88004 0.379297 0.498808
558 1 0.440195 0.180596 0.493623
566 1 0.689253 0.187913 0.496231
522 1 0.306751 0.0662009 0.496943
526 1 0.436344 0.0593566 0.497954
5 1 0.122669 0.0017006 0.00383352
97 1 1.00337 0.373123 0.0015695
89 1 0.748981 0.250534 0.00203882
514 1 0.0624816 0.0612142 0.496285
33 1 0.0058018 0.124378 0.00517023
610 1 0.0635404 0.436888 0.496068
6 1 0.189453 0.0649537 0.00113747
549 1 0.125554 0.121764 0.498613
26 1 0.805947 0.0642192 0.000428842
18 1 0.561946 0.0611683 0.00281256
34 1 0.0653594 0.181773 0.00502208
78 1 0.438778 0.312617 0.00346546
545 1 0.00326989 0.131344 0.495948
13 1 0.375516 0.00167984 0.00751791
81 1 0.50025 0.253631 0.00207474
779 1 0.309654 0.00630003 0.809166
1020 1 0.747339 0.440451 0.938126
57 1 0.749318 0.12759 1.00261
1677 1 0.369307 0.498202 0.616445
773 1 0.129323 0.00256425 0.753015
546 1 0.062701 0.190395 0.504277
516 1 0.997949 0.0609719 0.560637
1931 1 0.323914 0.494693 0.938725
520 1 0.128137 0.0574864 0.563796
527 1 0.435904 0.00210823 0.564786
795 1 0.810482 0.00111056 0.814811
555 1 0.319816 0.127071 0.564254
789 1 0.626391 0.00343815 0.751143
1551 1 0.436533 0.499175 0.561524
571 1 0.811116 0.120991 0.560433
73 1 0.252895 0.257015 0.999601
575 1 0.935226 0.121071 0.562153
547 1 0.0572484 0.122134 0.560359
923 1 0.813673 0.00786429 0.941422
560 1 0.386022 0.1801 0.561261
667 1 0.804454 0.00627529 0.696754
1687 1 0.682978 0.498274 0.69382
799 1 0.937626 0.00276984 0.813849
583 1 0.191777 0.244046 0.559245
1925 1 0.131235 0.498787 0.868985
42 1 0.306381 0.18944 1.00113
599 1 0.694845 0.250161 0.562886
629 1 0.6222 0.373192 0.511117
917 1 0.621604 0.00225154 0.878584
579 1 0.0617259 0.251838 0.563026
1547 1 0.309161 0.495407 0.556211
593 1 0.499464 0.242593 0.500467
797 1 0.873969 0.00460498 0.746719
600 1 0.615898 0.311835 0.566085
604 1 0.753669 0.316556 0.562654
584 1 0.124535 0.306372 0.56018
588 1 0.260359 0.307944 0.562189
1811 1 0.559559 0.495763 0.817246
1693 1 0.876566 0.49911 0.628232
530 1 0.56662 0.0600992 0.4989
531 1 0.564459 0.0012428 0.562339
635 1 0.813175 0.380302 0.558702
1799 1 0.192392 0.500975 0.811686
611 1 0.0687222 0.376806 0.557116
1667 1 0.0671699 0.499576 0.685249
597 1 0.624176 0.245771 0.505321
640 1 0.878903 0.439796 0.567191
649 1 0.255885 0.00650602 0.621447
905 1 0.254906 -0.000879932 0.880303
602 1 0.824682 0.316458 0.501784
628 1 0.495532 0.436123 0.562637
1805 1 0.375636 0.498492 0.750579
636 1 0.748997 0.439853 0.565696
642 1 0.0648627 0.0654647 0.629606
524 1 0.257364 0.0710211 0.567176
528 1 0.372133 0.057911 0.559282
793 1 0.746551 -0.00116751 0.758797
1004 1 0.247512 0.438734 0.94234
532 1 0.502035 0.0629312 0.558034
536 1 0.624597 0.0625661 0.559671
540 1 0.748598 0.0599556 0.563309
1000 1 0.125638 0.444765 0.937649
670 1 0.933203 0.058759 0.619161
551 1 0.192025 0.129774 0.566752
559 1 0.444043 0.121432 0.561457
563 1 0.563421 0.118697 0.562103
693 1 0.620792 0.127331 0.62877
567 1 0.674882 0.126769 0.555711
697 1 0.755037 0.120754 0.621316
544 1 0.86954 0.0614277 0.556274
552 1 0.12975 0.183806 0.563433
556 1 0.256284 0.186311 0.564591
690 1 0.56185 0.185543 0.630442
694 1 0.689503 0.190321 0.624235
572 1 0.751578 0.183503 0.562197
698 1 0.818758 0.181363 0.628286
702 1 0.931874 0.183163 0.627488
548 1 0.997728 0.183747 0.568467
674 1 0.0628807 0.186581 0.617845
709 1 0.130553 0.2486 0.623128
587 1 0.317859 0.242798 0.562414
682 1 0.313815 0.188779 0.626222
686 1 0.442102 0.181341 0.627689
564 1 0.50095 0.180304 0.564511
568 1 0.616225 0.188072 0.566379
725 1 0.626145 0.251296 0.630084
729 1 0.751496 0.253651 0.627226
603 1 0.815065 0.251004 0.563429
576 1 0.871966 0.18636 0.565319
713 1 0.250698 0.245666 0.628929
717 1 0.382711 0.243923 0.632059
591 1 0.437602 0.242205 0.566843
595 1 0.56027 0.250233 0.563496
726 1 0.679433 0.320461 0.623279
607 1 0.939515 0.247706 0.566839
706 1 0.0595408 0.307828 0.625794
615 1 0.189001 0.372858 0.554962
619 1 0.316166 0.372957 0.558512
592 1 0.377945 0.303014 0.564798
623 1 0.432597 0.373508 0.564231
596 1 0.493868 0.314152 0.563604
627 1 0.55887 0.380111 0.566212
722 1 0.559473 0.309493 0.625783
631 1 0.686184 0.381373 0.568502
608 1 0.878087 0.309706 0.567112
639 1 0.937423 0.377825 0.562976
580 1 0.00268824 0.314817 0.560089
741 1 0.128033 0.371343 0.618384
745 1 0.25762 0.369089 0.622029
620 1 0.248836 0.434528 0.557633
624 1 0.375576 0.438159 0.558643
753 1 0.497097 0.373113 0.630184
632 1 0.621255 0.444527 0.568378
758 1 0.686352 0.43987 0.62893
761 1 0.749065 0.372123 0.626235
612 1 0.00815259 0.436638 0.563573
616 1 0.127315 0.440846 0.559263
742 1 0.190323 0.4389 0.625528
1023 1 0.943543 0.372037 0.937811
746 1 0.307632 0.437944 0.618351
1563 1 0.814236 0.500787 0.570694
1691 1 0.812911 0.497047 0.684221
515 1 0.0642546 0.00240868 0.565656
114 1 0.573598 0.435874 0.994854
762 1 0.811871 0.431887 0.627456
646 1 0.188219 0.0674911 0.627408
650 1 0.316664 0.0668412 0.630986
656 1 0.376149 0.0667551 0.688854
654 1 0.434457 0.0612371 0.626653
658 1 0.567833 0.0579382 0.627886
653 1 0.371758 0.0020101 0.627086
662 1 0.685311 0.0636497 0.628937
553 1 0.244331 0.127181 0.501702
666 1 0.813039 0.0569872 0.622102
673 1 0.998296 0.118622 0.621014
679 1 0.193903 0.124692 0.692116
681 1 0.257196 0.127512 0.635289
687 1 0.445462 0.120814 0.692534
699 1 0.811491 0.121507 0.686298
677 1 0.126857 0.128842 0.630169
678 1 0.197614 0.183513 0.627383
685 1 0.381512 0.128326 0.625302
689 1 0.504965 0.119563 0.627123
696 1 0.630859 0.187052 0.685712
700 1 0.752194 0.193006 0.688276
701 1 0.87557 0.120302 0.626873
676 1 0.993131 0.181943 0.681932
711 1 0.188285 0.2453 0.6919
688 1 0.376613 0.183942 0.688941
723 1 0.561025 0.248826 0.689508
727 1 0.689167 0.25143 0.686709
704 1 0.879486 0.181628 0.691441
735 1 0.941744 0.251289 0.684739
707 1 0.0571635 0.245686 0.687357
710 1 0.192743 0.312335 0.614037
714 1 0.318924 0.306218 0.626608
719 1 0.446741 0.248548 0.689977
721 1 0.499191 0.251085 0.624286
728 1 0.62704 0.3182 0.685689
731 1 0.815444 0.251705 0.687534
733 1 0.876633 0.251017 0.624158
705 1 0.000510436 0.249613 0.62381
712 1 0.132284 0.313499 0.682358
716 1 0.247949 0.31043 0.686992
718 1 0.439843 0.310981 0.629989
759 1 0.688153 0.376778 0.688054
732 1 0.74955 0.312394 0.686639
730 1 0.816412 0.314802 0.62823
734 1 0.941214 0.317132 0.62349
739 1 0.0637746 0.379498 0.684983
738 1 0.0721287 0.439382 0.622225
743 1 0.188977 0.37553 0.685041
748 1 0.254234 0.432576 0.686814
747 1 0.314317 0.370988 0.686314
749 1 0.371323 0.368803 0.620775
750 1 0.438712 0.438035 0.626917
757 1 0.612906 0.37731 0.62914
764 1 0.751115 0.432667 0.691604
763 1 0.815099 0.373112 0.693524
765 1 0.880986 0.373459 0.624892
737 1 0.00244106 0.373443 0.623541
744 1 0.129291 0.440124 0.690987
1015 1 0.688623 0.368102 0.934684
785 1 0.50181 0.00218376 0.75358
605 1 0.875051 0.246593 0.504338
752 1 0.372054 0.43666 0.67822
756 1 0.501115 0.445283 0.687701
754 1 0.556819 0.444403 0.626698
766 1 0.938743 0.443817 0.628101
1016 1 0.637204 0.436274 0.936469
1041 1 0.508431 0.493092 0.997149
648 1 0.131909 0.0697287 0.691153
652 1 0.252393 0.0652176 0.687756
778 1 0.311967 0.0622256 0.75039
1689 1 0.750754 0.49893 0.628183
664 1 0.622085 0.0608578 0.690858
573 1 0.873138 0.129183 0.504542
672 1 0.868841 0.0638403 0.688109
644 1 1.00078 0.063887 0.687207
801 1 -0.00181258 0.128943 0.748182
675 1 0.0686454 0.132801 0.691129
683 1 0.315795 0.130625 0.689329
660 1 0.501102 0.0626078 0.692785
817 1 0.50471 0.126861 0.754545
691 1 0.567029 0.121318 0.689461
786 1 0.562465 0.0628515 0.755405
695 1 0.69601 0.13053 0.6842
668 1 0.749177 0.0652019 0.68855
829 1 0.875802 0.122309 0.756096
798 1 0.936828 0.0604795 0.756071
703 1 0.934916 0.118938 0.693483
684 1 0.251328 0.188176 0.690968
813 1 0.381083 0.126407 0.755786
818 1 0.566047 0.182259 0.755498
821 1 0.626562 0.124227 0.747333
825 1 0.750046 0.127404 0.749163
826 1 0.818455 0.187692 0.747446
830 1 0.940731 0.188394 0.751011
680 1 0.120977 0.190967 0.691882
806 1 0.190981 0.186299 0.748533
715 1 0.311392 0.246996 0.687133
814 1 0.443385 0.188799 0.751799
692 1 0.508042 0.184688 0.692973
849 1 0.507155 0.242354 0.755493
853 1 0.624913 0.249157 0.749693
861 1 0.882788 0.253176 0.749226
837 1 0.127623 0.25291 0.749234
841 1 0.247304 0.253235 0.753501
720 1 0.377969 0.313305 0.689686
850 1 0.559151 0.307921 0.755784
854 1 0.687452 0.309836 0.750772
857 1 0.754173 0.25476 0.74912
833 1 0.996961 0.255615 0.754962
708 1 0.000601256 0.312186 0.689655
834 1 0.0684118 0.314204 0.746395
869 1 0.126224 0.375376 0.749451
838 1 0.187227 0.312447 0.74757
877 1 0.375616 0.37675 0.753272
724 1 0.501525 0.312457 0.693872
736 1 0.880407 0.313459 0.685638
873 1 0.251448 0.371617 0.746973
874 1 0.316289 0.43841 0.745091
751 1 0.43755 0.375631 0.691222
755 1 0.563232 0.371006 0.695765
885 1 0.628357 0.370789 0.751694
767 1 0.946346 0.380451 0.690886
865 1 -0.00327451 0.379651 0.754547
740 1 0.0100682 0.438688 0.683187
866 1 0.0622143 0.439271 0.754281
651 1 0.311401 0.00406826 0.686815
882 1 0.558115 0.431293 0.755051
760 1 0.617909 0.4406 0.69515
890 1 0.818936 0.444523 0.751746
768 1 0.877325 0.433189 0.683308
894 1 0.937987 0.440791 0.748988
780 1 0.248098 0.0657585 0.815659
782 1 0.442825 0.0636585 0.758447
1809 1 0.502278 0.497231 0.75185
792 1 0.618838 0.0624946 0.816323
1012 1 0.500454 0.433041 0.935809
796 1 0.748605 0.0640424 0.807762
794 1 0.811335 0.0678089 0.755999
1561 1 0.740612 0.497423 0.501567
770 1 0.0588978 0.0685987 0.749557
774 1 0.193578 0.0638726 0.753473
809 1 0.25563 0.125401 0.753332
811 1 0.31587 0.117079 0.816711
784 1 0.377929 0.0599554 0.812841
815 1 0.440996 0.127046 0.817861
790 1 0.689283 0.064512 0.74633
800 1 0.870958 0.0618973 0.810153
772 1 -0.000123348 0.0560559 0.814539
803 1 0.0553095 0.127571 0.814553
805 1 0.126303 0.130237 0.753355
807 1 0.186867 0.127811 0.812963
819 1 0.556815 0.124251 0.819411
824 1 0.623402 0.18301 0.814917
828 1 0.750435 0.189927 0.80928
802 1 0.0582337 0.187333 0.756808
808 1 0.126026 0.192212 0.815884
810 1 0.311083 0.189787 0.753007
845 1 0.373061 0.248242 0.746285
822 1 0.691599 0.192494 0.746029
859 1 0.818538 0.248611 0.800988
832 1 0.878774 0.187027 0.813091
804 1 0.999744 0.187675 0.817
835 1 0.0645089 0.252927 0.81441
842 1 0.312711 0.307694 0.748119
846 1 0.441424 0.307465 0.757054
852 1 0.497023 0.308993 0.818884
863 1 0.935818 0.247636 0.814612
836 1 0.998312 0.310852 0.81164
867 1 0.0658909 0.377313 0.814976
840 1 0.124405 0.316031 0.812343
844 1 0.244639 0.316286 0.813171
875 1 0.311168 0.373149 0.806205
856 1 0.626602 0.312119 0.814165
889 1 0.75318 0.371366 0.748762
858 1 0.818114 0.311362 0.749595
893 1 0.87416 0.38169 0.752269
864 1 0.872679 0.30968 0.816713
862 1 0.930442 0.317648 0.751363
870 1 0.189317 0.435679 0.749549
880 1 0.369606 0.436849 0.815341
878 1 0.440912 0.435565 0.756415
881 1 0.499099 0.372353 0.751425
886 1 0.687535 0.435506 0.751103
887 1 0.689982 0.376047 0.810186
895 1 0.941078 0.369785 0.816576
868 1 0.00314093 0.434662 0.816211
1815 1 0.695725 0.496295 0.808036
581 1 0.128571 0.248168 0.497967
1665 1 0.00541286 0.499146 0.621908
1929 1 0.257806 0.495349 0.877137
1817 1 0.754313 0.500839 0.75109
117 1 0.631464 0.37171 0.999425
41 1 0.248342 0.12539 1.00188
1947 1 0.812141 0.495299 0.939496
926 1 0.933669 0.0635774 0.881952
898 1 0.0602606 0.0628958 0.877556
776 1 0.122467 0.0627879 0.815563
910 1 0.43298 0.0621492 0.877016
788 1 0.502324 0.0604773 0.817542
945 1 0.499773 0.124645 0.880813
823 1 0.686476 0.121997 0.807483
918 1 0.68594 0.0569004 0.871365
953 1 0.749427 0.122993 0.871083
929 1 0.997011 0.121168 0.878536
938 1 0.31769 0.191574 0.885542
816 1 0.373246 0.186322 0.81837
942 1 0.440981 0.188489 0.876155
946 1 0.562246 0.190186 0.874101
827 1 0.810397 0.126306 0.814278
831 1 0.936923 0.1184 0.818304
930 1 0.061219 0.191856 0.873924
812 1 0.246432 0.191207 0.810133
973 1 0.373598 0.250408 0.880078
847 1 0.433404 0.246695 0.817145
820 1 0.499738 0.188831 0.815397
851 1 0.564296 0.251681 0.813912
981 1 0.626813 0.245416 0.877042
950 1 0.689429 0.18987 0.872818
958 1 0.93245 0.186439 0.875901
961 1 1.00164 0.249667 0.874533
839 1 0.185124 0.25292 0.820096
843 1 0.312077 0.24507 0.817424
848 1 0.370654 0.311624 0.807984
978 1 0.565707 0.308752 0.873227
855 1 0.688293 0.247688 0.812827
985 1 0.759968 0.245568 0.874916
989 1 0.871429 0.250641 0.875866
990 1 0.93704 0.310061 0.880982
997 1 0.125293 0.383313 0.877276
1005 1 0.372376 0.370353 0.871333
879 1 0.438306 0.369959 0.814042
1009 1 0.495644 0.375601 0.872831
883 1 0.56679 0.371675 0.813202
860 1 0.752704 0.313084 0.809763
891 1 0.815014 0.374431 0.808705
993 1 0.00178711 0.377808 0.879676
994 1 0.0639967 0.437883 0.875331
872 1 0.127997 0.440471 0.808055
871 1 0.185479 0.376452 0.816411
876 1 0.251825 0.437044 0.811103
1001 1 0.244182 0.370834 0.879351
888 1 0.625925 0.43928 0.810053
1021 1 0.873378 0.370554 0.879964
1022 1 0.932638 0.444059 0.873609
657 1 0.496687 0.00926993 0.625363
907 1 0.310063 0.000874454 0.941466
1002 1 0.30727 0.434885 0.878973
569 1 0.74872 0.12945 0.499269
606 1 0.936526 0.315083 0.501665
884 1 0.503906 0.432183 0.817001
769 1 1.00088 0.000460124 0.745321
988 1 0.753219 0.309589 0.939375
892 1 0.753968 0.439746 0.81571
519 1 0.194863 0.00482398 0.564371
896 1 0.873999 0.439534 0.816563
671 1 0.935309 0.00136455 0.686275
1933 1 0.373282 0.494029 0.867816