ITEM: TIMESTEP
100000
ITEM: NUMBER OF ATOMS
2048
ITEM: BOX BOUNDS pp pp pp
0.0000000000000000e+00 1.3679807573413575e+01
0.0000000000000000e+00 1.3679807573413575e+01
0.0000000000000000e+00 1.3679807573413575e+01
ITEM: ATOMS id type xs ys zs
378 1 0.172006 0.0130848 0.0285574
517 1 0.31602 0.0298133 0.0273843
1001 1 0.591191 0.0218986 0.0125548
1356 1 0.859955 0.0119492 0.0462879
1328 1 0.979024 0.00648878 0.042508
508 1 0.101454 0.0676419 0.0157163
1793 1 0.571587 0.0965075 0.0484072
488 1 0.699951 0.0921796 0.0258657
954 1 0.868634 0.0785071 0.00454126
261 1 0.935668 0.0838809 0.0399554
650 1 0.0185754 0.125184 0.00852949
867 1 0.0958461 0.143219 0.00244869
1519 1 0.171849 0.118932 0.0202314
599 1 0.322799 0.141395 0.00444285
1221 1 0.383501 0.111057 0.0405084
1012 1 0.621187 0.147297 0.0348287
1581 1 0.906871 0.14854 0.000714206
598 1 0.12074 0.191842 0.0431351
1305 1 0.259438 0.171118 0.0470837
1687 1 0.479852 0.17433 0.00595496
801 1 0.731019 0.157179 0.0332444
1332 1 0.0505109 0.217607 0.0262196
1907 1 0.184612 0.23673 0.0288991
168 1 0.581137 0.214177 0.0486822
1660 1 0.665268 0.212156 0.0477831
2032 1 0.727875 0.246606 0.0293295
1102 1 0.784168 0.205267 0.0122907
256 1 0.24765 0.2688 0.0344096
1177 1 0.426396 0.266936 0.000749086
1144 1 0.520674 0.281694 0.0195442
149 1 0.593723 0.290573 0.00890664
996 1 0.786152 0.285406 0.0471868
340 1 0.899167 0.265913 0.00580679
274 1 0.054342 0.325484 0.00559247
616 1 0.137143 0.301415 0.0266217
1220 1 0.853263 0.320407 0.0404325
1903 1 0.92397 0.326633 0.0470985
346 1 0.983569 0.341147 0.013036
1792 1 0.384349 0.361286 0.0304268
1004 1 0.536078 0.38686 0.0483743
583 1 0.618941 0.360102 0.0448904
1557 1 0.772602 0.397871 0.0151058
1928 1 0.00985761 0.422419 0.0482046
571 1 0.115546 0.405898 0.0123847
1862 1 0.180172 0.403617 0.0408482
1810 1 0.309229 0.425534 0.0019287
2034 1 0.440504 0.409132 0.00993458
182 1 0.587612 0.430644 0.0106798
114 1 0.840893 0.401107 0.00853961
888 1 0.0891179 0.478603 0.022327
1361 1 0.252074 0.485944 0.00587696
1132 1 0.361801 0.463135 0.025034
1831 1 0.726248 0.452231 0.012178
805 1 0.960307 0.461413 0.0123121
357 1 0.159192 0.0258786 0.0981171
1656 1 0.254048 0.0427961 0.079587
2031 1 0.374449 0.0374817 0.0727187
1614 1 0.507039 0.00989034 0.062292
1409 1 0.0150957 0.0643649 0.0667871
1202 1 0.0810033 0.0674706 0.0908482
203 1 0.319036 0.0868036 0.0682305
1595 1 0.44147 0.062403 0.0905734
1910 1 0.637178 0.0547789 0.0541003
1187 1 0.782342 0.0888696 0.053609
662 1 0.150828 0.105845 0.0969188
630 1 0.243311 0.118809 0.0923901
1029 1 0.49408 0.101382 0.0576064
1173 1 0.661325 0.121827 0.0845202
1833 1 0.869839 0.11972 0.0733794
605 1 0.0663937 0.151081 0.0748691
1226 1 0.196435 0.180797 0.0727213
1445 1 0.338441 0.151564 0.0861625
444 1 0.408113 0.18098 0.0542204
935 1 0.537886 0.160763 0.0579845
317 1 0.814103 0.157313 0.0566028
1634 1 0.909146 0.186101 0.066774
588 1 0.990264 0.165747 0.0573846
1583 1 0.0395689 0.210481 0.0985454
1293 1 0.300214 0.222422 0.0786581
854 1 0.487256 0.238541 0.0674462
1035 1 0.71866 0.200329 0.0974562
500 1 0.783742 0.223606 0.0811009
1689 1 0.854695 0.231878 0.0638427
655 1 0.0854187 0.286112 0.0749075
370 1 0.347394 0.299043 0.0508611
1063 1 0.42612 0.29697 0.0770756
973 1 0.625296 0.279281 0.0899656
299 1 0.998763 0.257491 0.0578132
780 1 0.133169 0.334404 0.0995958
1211 1 0.223757 0.327416 0.0665109
392 1 0.70231 0.308405 0.0634025
1834 1 0.97801 0.339169 0.0962549
196 1 0.0596203 0.364715 0.0657342
1717 1 0.284637 0.363231 0.0528233
633 1 0.440914 0.386515 0.0939823
1034 1 0.695187 0.396588 0.0643372
1690 1 0.769661 0.35033 0.0695704
339 1 0.819535 0.445015 0.057914
1670 1 0.903157 0.407943 0.0500277
31 1 0.0567255 0.465005 0.0849896
1128 1 0.211794 0.468923 0.091945
810 1 0.420568 0.455985 0.0828384
851 1 0.504013 0.453171 0.0508015
1302 1 0.640082 0.460507 0.0548084
430 1 0.883044 0.475071 0.0614836
1965 1 0.972706 0.498857 0.0739979
748 1 0.731024 0.0305505 0.101025
565 1 0.804225 0.0185514 0.104277
611 1 0.287442 0.0766873 0.133948
1375 1 0.361483 0.0951921 0.139181
1979 1 0.58194 0.052954 0.129029
907 1 0.670699 0.0516158 0.136132
1200 1 0.92093 0.0624331 0.113861
1701 1 0.200154 0.145563 0.14504
174 1 0.505452 0.129944 0.134951
548 1 0.721244 0.103806 0.133629
374 1 0.877639 0.130722 0.145094
212 1 0.965355 0.119216 0.110171
828 1 0.110907 0.17999 0.121093
1038 1 0.438017 0.152335 0.112907
908 1 0.615034 0.185842 0.117504
516 1 0.75897 0.162968 0.145372
325 1 0.224929 0.222366 0.124318
667 1 0.423471 0.228365 0.106798
668 1 0.521408 0.206038 0.133513
1756 1 0.886071 0.222642 0.140135
239 1 0.95852 0.239209 0.137993
1950 1 0.145637 0.252561 0.101334
1181 1 0.208424 0.292511 0.146676
1443 1 0.272578 0.287492 0.101735
238 1 0.338406 0.263749 0.127943
1799 1 0.528298 0.286376 0.11539
167 1 0.676831 0.26713 0.143873
492 1 0.806217 0.28449 0.120765
816 1 0.895956 0.291318 0.100617
1730 1 0.0582793 0.318927 0.131192
338 1 0.33033 0.343305 0.104251
1185 1 0.389117 0.315811 0.144811
823 1 0.468698 0.329966 0.142661
1294 1 0.677806 0.344757 0.146089
386 1 0.741583 0.307556 0.131375
560 1 0.0139731 0.399034 0.122297
933 1 0.20547 0.361905 0.129214
1051 1 0.572017 0.350168 0.103869
403 1 0.635942 0.38787 0.107718
1869 1 0.801231 0.356324 0.140309
107 1 0.871039 0.387331 0.123708
25 1 0.263091 0.405984 0.115387
539 1 0.355458 0.408548 0.104028
1987 1 0.540061 0.423172 0.115908
675 1 0.789048 0.429546 0.123614
1206 1 0.944358 0.444175 0.129499
1682 1 0.145113 0.450775 0.126035
1870 1 0.344401 0.499259 0.131733
1030 1 0.608342 0.459064 0.129837
786 1 0.719319 0.45254 0.102204
713 1 0.853515 0.496088 0.132201
1632 1 0.0272855 0.0474918 0.161366
428 1 0.216532 0.021563 0.154259
127 1 0.395938 0.0221421 0.155334
147 1 0.469637 0.0166245 0.157586
1084 1 0.564357 0.00195428 0.184167
889 1 0.861279 0.0332792 0.177728
1321 1 0.106854 0.0753456 0.157644
955 1 0.466325 0.0861027 0.184777
1809 1 0.550326 0.0979042 0.191366
1807 1 0.768167 0.0524992 0.179001
2026 1 0.961446 0.0736097 0.172765
1952 1 0.0359137 0.138854 0.157215
1512 1 0.626248 0.105344 0.153873
1654 1 0.694636 0.128507 0.191634
275 1 0.807551 0.110859 0.188174
987 1 0.101706 0.15608 0.188073
613 1 0.315062 0.154666 0.164812
1773 1 0.386765 0.168725 0.158596
417 1 0.82558 0.179711 0.166064
509 1 0.975071 0.172496 0.16039
1575 1 0.135224 0.248057 0.182622
1325 1 0.392152 0.249559 0.176989
949 1 0.464841 0.211783 0.191506
1241 1 0.62936 0.22783 0.175731
677 1 0.749228 0.248526 0.170817
880 1 0.0595916 0.250077 0.159036
495 1 0.282347 0.294888 0.170077
1819 1 0.55244 0.260262 0.187352
105 1 0.926959 0.293499 0.174521
1853 1 0.00568073 0.300321 0.194923
1922 1 0.0785965 0.306176 0.199979
1351 1 0.147649 0.321415 0.167549
2 1 0.594424 0.307708 0.155898
1360 1 0.85843 0.313516 0.195183
169 1 0.0599118 0.378921 0.172446
890 1 0.141317 0.388481 0.169227
1912 1 0.291556 0.366756 0.174748
1735 1 0.396496 0.398118 0.163326
1913 1 0.487523 0.395841 0.183202
1005 1 0.556331 0.358535 0.195512
349 1 0.617745 0.399425 0.177465
736 1 0.284185 0.448276 0.174473
1888 1 0.686763 0.419727 0.166909
1042 1 0.751799 0.401852 0.190504
1716 1 0.857847 0.400682 0.19039
563 1 0.979273 0.416439 0.197908
1041 1 0.0495684 0.464639 0.173453
510 1 0.121096 0.497985 0.197064
153 1 0.178823 0.451988 0.193003
661 1 0.361095 0.461582 0.195303
217 1 0.498524 0.471016 0.152758
1101 1 0.564189 0.46081 0.187612
128 1 0.632122 0.490748 0.188076
944 1 0.758024 0.482829 0.16821
1684 1 0.0475988 0.0209645 0.242139
672 1 0.119547 0.00880574 0.246557
1441 1 0.2414 0.0226808 0.22682
1795 1 0.320013 0.013077 0.241349
1419 1 0.424625 0.0130732 0.22272
1686 1 0.505707 0.0380524 0.217198
1978 1 0.629245 0.0454696 0.206057
1452 1 0.703323 0.0417784 0.245671
986 1 0.0200244 0.0937614 0.238181
843 1 0.0943571 0.0788474 0.23054
1511 1 0.170281 0.0873727 0.211448
1212 1 0.302252 0.0719076 0.201954
1491 1 0.396724 0.0924388 0.206855
1904 1 0.302983 0.133819 0.243262
57 1 0.497291 0.147979 0.205406
1386 1 0.640333 0.137922 0.231719
1840 1 0.869903 0.102991 0.218062
1855 1 0.942817 0.114532 0.248616
1638 1 0.201259 0.151446 0.217799
993 1 0.259584 0.199357 0.212066
499 1 0.426364 0.159157 0.221591
989 1 0.563359 0.185245 0.215662
124 1 0.703415 0.198106 0.20627
1436 1 0.765816 0.164763 0.226468
1017 1 0.900427 0.191511 0.216914
2028 1 0.103881 0.21737 0.241419
1637 1 0.179442 0.219866 0.239609
1396 1 0.31794 0.241081 0.20461
1532 1 0.60188 0.246501 0.244445
961 1 0.813247 0.230761 0.223174
1832 1 0.96099 0.246385 0.227452
248 1 0.196639 0.28654 0.21542
2008 1 0.266799 0.289114 0.241605
164 1 0.76847 0.299665 0.237792
242 1 0.133714 0.30823 0.244882
308 1 0.33496 0.301995 0.229818
1103 1 0.411041 0.309038 0.242156
1191 1 0.477662 0.310429 0.219649
737 1 0.64085 0.335217 0.204549
1694 1 0.705665 0.306573 0.202086
1178 1 0.19537 0.357789 0.21526
1794 1 0.296361 0.383872 0.248161
775 1 0.36767 0.36655 0.232845
1672 1 0.437305 0.376323 0.234491
1510 1 0.674696 0.392149 0.240513
746 1 0.802603 0.359938 0.22548
1456 1 0.952321 0.350221 0.219556
1641 1 0.112876 0.441108 0.235554
53 1 0.239183 0.416233 0.223984
537 1 0.434919 0.448859 0.209569
162 1 0.579127 0.413715 0.24066
1459 1 0.801043 0.445408 0.227368
900 1 0.914916 0.411567 0.242359
307 1 0.0385301 0.472841 0.242299
781 1 0.29973 0.489649 0.246533
985 1 0.687345 0.464955 0.224697
1465 1 0.517612 0.001771 0.280682
893 1 0.639738 0.046054 0.281241
1088 1 0.909935 0.0389233 0.263246
1816 1 0.994045 0.0469378 0.287201
814 1 0.135138 0.0934201 0.291545
1787 1 0.225285 0.0566845 0.288813
1940 1 0.336786 0.0701927 0.277366
1702 1 0.461437 0.0735316 0.262622
331 1 0.584413 0.0825515 0.260424
866 1 0.795705 0.0937843 0.255796
1013 1 0.207049 0.130593 0.291745
1399 1 0.407095 0.105265 0.290542
562 1 0.835965 0.149159 0.264745
1326 1 0.0546371 0.155818 0.250739
1252 1 0.140569 0.160531 0.284468
2041 1 0.48183 0.169987 0.272035
763 1 0.612433 0.181032 0.283814
698 1 0.975238 0.178931 0.256617
1630 1 0.0452817 0.22636 0.281111
1407 1 0.287533 0.201283 0.276373
240 1 0.420033 0.205343 0.281691
1271 1 0.506973 0.240684 0.258971
1470 1 0.755235 0.235848 0.26298
180 1 0.870611 0.206153 0.291417
1006 1 0.463372 0.28623 0.288029
87 1 0.688506 0.257555 0.250574
329 1 0.811981 0.272009 0.285697
1331 1 0.882563 0.271972 0.252826
27 1 0.012158 0.302983 0.270438
1282 1 0.544119 0.312954 0.269621
1521 1 0.633249 0.302315 0.286821
443 1 0.692619 0.341944 0.294087
1377 1 0.874559 0.33884 0.264116
1298 1 0.0535089 0.383139 0.272826
396 1 0.122941 0.380067 0.260124
1711 1 0.236942 0.360888 0.278586
297 1 0.759907 0.399401 0.268363
1152 1 0.875965 0.399839 0.29934
927 1 0.948991 0.354363 0.296179
267 1 0.177146 0.42565 0.262817
766 1 0.97454 0.431603 0.281992
1956 1 0.53229 0.47729 0.265187
1584 1 0.626187 0.464016 0.270026
1766 1 0.783231 0.498227 0.286101
1382 1 0.845978 0.46195 0.280139
1663 1 0.913595 0.482518 0.263938
1134 1 0.0629803 0.0310493 0.310851
995 1 0.415442 0.0341002 0.30218
184 1 0.767635 0.0227766 0.311301
95 1 0.843367 0.033546 0.307824
1451 1 0.938809 0.0245656 0.330591
387 1 0.294412 0.0550219 0.33653
2009 1 0.358446 0.0813807 0.348222
1782 1 0.467085 0.0976158 0.335038
464 1 0.532195 0.0749079 0.306865
1732 1 0.676452 0.0584081 0.33665
1520 1 0.918539 0.0986985 0.317719
1621 1 0.0627859 0.112254 0.324541
1243 1 0.274367 0.149827 0.321909
626 1 0.617553 0.103153 0.347676
2047 1 0.731777 0.107145 0.326212
1616 1 0.812128 0.104688 0.326919
1143 1 0.989232 0.132831 0.311097
490 1 0.0362195 0.178439 0.342102
450 1 0.182012 0.165812 0.345879
797 1 0.347737 0.150526 0.319929
1958 1 0.563308 0.157193 0.33118
172 1 0.658601 0.16489 0.335456
1239 1 0.774029 0.174216 0.300484
1263 1 0.122768 0.234821 0.317809
453 1 0.215421 0.220572 0.302542
716 1 0.351202 0.233271 0.301448
1077 1 0.714387 0.231974 0.324554
835 1 0.818358 0.220326 0.343545
2033 1 0.967784 0.209834 0.342093
603 1 0.00716819 0.287987 0.340832
1968 1 0.299995 0.273028 0.312137
1245 1 0.504675 0.269709 0.343894
572 1 0.575123 0.261418 0.317742
1889 1 0.872085 0.297735 0.326177
438 1 0.174113 0.315968 0.321301
1619 1 0.24612 0.338318 0.34587
1008 1 0.321027 0.341785 0.304001
344 1 0.401202 0.318681 0.337417
940 1 0.558119 0.332449 0.334742
467 1 0.779966 0.33043 0.314779
1736 1 0.0617142 0.352567 0.346793
1857 1 0.404768 0.395977 0.305342
1235 1 0.506502 0.398799 0.320062
594 1 0.598748 0.397887 0.333481
418 1 0.834431 0.364236 0.348228
682 1 0.0132922 0.405111 0.332845
88 1 0.245219 0.414262 0.331686
1657 1 0.330507 0.436029 0.303667
1721 1 0.779065 0.41484 0.338661
937 1 0.0734979 0.470888 0.304669
699 1 0.129844 0.453108 0.34524
706 1 0.19055 0.466298 0.31942
1921 1 0.420534 0.460973 0.30874
1685 1 0.521575 0.475737 0.335212
997 1 0.723208 0.465638 0.30903
779 1 0.935794 0.452444 0.337686
383 1 0.0915786 0.0229183 0.381145
402 1 0.227688 0.00162833 0.351865
1558 1 0.306879 0.0015141 0.397628
1482 1 0.489133 0.0325343 0.374209
982 1 0.712687 0.00956101 0.388358
364 1 0.889677 0.00714754 0.382206
139 1 0.0611624 0.0876631 0.388388
555 1 0.14098 0.097483 0.365404
1764 1 0.427806 0.0589462 0.391112
1995 1 0.780977 0.0638598 0.396964
1129 1 0.927759 0.0941035 0.39529
1048 1 0.998673 0.0705714 0.353375
845 1 0.0151423 0.139017 0.398832
1037 1 0.244138 0.134401 0.383475
1542 1 0.402184 0.129822 0.36436
218 1 0.880372 0.132922 0.360581
1370 1 0.0952475 0.173073 0.387823
1970 1 0.324954 0.159767 0.386858
455 1 0.46757 0.160311 0.381579
1410 1 0.73412 0.171435 0.361961
631 1 0.800888 0.157954 0.38106
1513 1 0.0336444 0.2388 0.392494
876 1 0.153594 0.226321 0.397515
1475 1 0.265552 0.213135 0.361513
941 1 0.331418 0.240119 0.368696
45 1 0.399427 0.230134 0.353339
15 1 0.893704 0.225466 0.376886
569 1 0.107474 0.296793 0.393412
689 1 0.216065 0.265098 0.35677
472 1 0.57006 0.254569 0.390702
1842 1 0.645403 0.255539 0.361054
1866 1 0.71136 0.256459 0.391981
1620 1 0.910951 0.295789 0.385488
2044 1 0.165827 0.349966 0.386919
1256 1 0.608934 0.314804 0.38417
377 1 0.309865 0.385525 0.360756
351 1 0.386733 0.383053 0.369663
125 1 0.472512 0.35451 0.366168
1076 1 0.682861 0.38979 0.352696
321 1 0.749874 0.368948 0.379001
37 1 0.907748 0.386715 0.383085
1851 1 0.975427 0.354995 0.362547
514 1 0.440257 0.416454 0.394317
683 1 0.573334 0.404441 0.399979
103 1 0.85467 0.448686 0.3514
1254 1 0.00950002 0.48806 0.389134
1258 1 0.192573 0.489472 0.394417
2036 1 0.264908 0.454056 0.397403
471 1 0.360493 0.479125 0.363045
404 1 0.456602 0.493957 0.398845
1329 1 0.617865 0.486277 0.352627
1318 1 0.678695 0.461092 0.376805
1227 1 0.799435 0.490584 0.397289
634 1 0.588822 0.0395466 0.41822
1142 1 0.96298 0.00654894 0.408394
120 1 0.130649 0.0546199 0.428504
1573 1 0.23872 0.0718396 0.410699
1875 1 0.357984 0.0752048 0.436905
1069 1 0.689354 0.0820426 0.437429
1083 1 0.852559 0.0817343 0.402305
100 1 0.14788 0.132855 0.427713
1362 1 0.533294 0.112547 0.400776
258 1 0.622946 0.122387 0.420448
93 1 0.852845 0.145402 0.431653
1945 1 0.227288 0.197428 0.417937
1905 1 0.564737 0.18616 0.425024
751 1 0.678229 0.165765 0.417818
1111 1 0.936084 0.167342 0.41185
1541 1 0.399016 0.217991 0.430119
229 1 0.496716 0.224547 0.400838
110 1 0.657164 0.228059 0.446038
111 1 0.796555 0.240136 0.407177
1691 1 0.195358 0.284838 0.423909
269 1 0.278435 0.274381 0.410232
1404 1 0.5018 0.293705 0.416041
999 1 0.96907 0.262819 0.406974
498 1 0.0326178 0.311528 0.401523
545 1 0.372524 0.322751 0.427063
523 1 0.438217 0.309432 0.443084
808 1 0.574006 0.318587 0.444358
1501 1 0.754189 0.304483 0.420151
1140 1 0.833581 0.308972 0.409007
246 1 0.939996 0.342721 0.433945
83 1 0.10156 0.386525 0.405951
1280 1 0.244728 0.36028 0.431614
1991 1 0.654374 0.369957 0.430718
109 1 0.827032 0.38917 0.418486
1933 1 0.00120002 0.414953 0.40177
1327 1 0.508657 0.432849 0.406969
43 1 0.631888 0.436669 0.42962
891 1 0.760976 0.431965 0.42959
688 1 0.929948 0.441261 0.425968
365 1 0.138809 0.486275 0.442881
2022 1 0.321594 0.494799 0.422498
1876 1 0.389348 0.470383 0.426179
486 1 0.568983 0.470513 0.425566
190 1 0.8429 0.46351 0.449043
1039 1 0.184947 0.023054 0.465038
1523 1 0.269543 0.0287832 0.46143
730 1 0.464882 0.0324656 0.468478
1448 1 0.584921 0.0239547 0.485335
1527 1 0.766566 0.00911953 0.455341
1915 1 0.829 0.0425805 0.464559
543 1 0.934571 0.000166894 0.47301
897 1 0.0465042 0.0753596 0.475426
1506 1 0.162818 0.0827244 0.493478
964 1 0.246345 0.0950107 0.492499
131 1 0.5309 0.0614659 0.453904
1044 1 0.969325 0.0607624 0.46992
181 1 0.0777348 0.144875 0.451716
155 1 0.301094 0.135764 0.452671
389 1 0.376878 0.144343 0.476457
305 1 0.439333 0.102193 0.457296
696 1 0.566044 0.126291 0.46673
695 1 0.763229 0.119296 0.454729
170 1 0.919586 0.111544 0.471228
1555 1 0.0173241 0.184506 0.48032
1803 1 0.191116 0.163377 0.470997
1746 1 0.499925 0.165691 0.472955
507 1 0.697224 0.194317 0.499056
1774 1 0.77739 0.191527 0.455567
282 1 0.855402 0.189454 0.487146
663 1 0.108937 0.218912 0.455198
342 1 0.289162 0.207454 0.471072
800 1 0.468678 0.225869 0.479127
595 1 0.548653 0.246356 0.478668
697 1 0.921603 0.235168 0.461045
791 1 0.017125 0.257152 0.469964
664 1 0.234395 0.279534 0.493795
1079 1 0.625211 0.278789 0.486378
1248 1 0.74361 0.254617 0.483535
1683 1 0.967087 0.293327 0.497915
320 1 0.117087 0.330444 0.463462
1639 1 0.186042 0.338168 0.486272
1307 1 0.313914 0.312119 0.465979
1611 1 0.514265 0.345283 0.464125
148 1 0.725418 0.320864 0.491412
895 1 0.812743 0.333285 0.497392
202 1 0.874209 0.30665 0.469469
2000 1 0.0388303 0.37814 0.483745
1054 1 0.30064 0.39815 0.453885
1363 1 0.371818 0.392622 0.453161
1474 1 0.471366 0.399313 0.485765
206 1 0.0649421 0.443067 0.470537
1 1 0.164471 0.417445 0.467239
1444 1 0.570728 0.406216 0.483646
1565 1 0.698724 0.432138 0.468928
971 1 0.80718 0.403909 0.484765
1917 1 0.877787 0.410851 0.487012
1625 1 0.988105 0.442627 0.466192
825 1 0.222904 0.470036 0.475631
798 1 0.51294 0.477371 0.478786
1412 1 0.8975 0.486423 0.491828
549 1 0.291071 0.0451469 0.54292
1378 1 0.397945 0.0418963 0.521248
118 1 0.466477 0.0334972 0.539459
597 1 0.676207 0.034492 0.539006
415 1 0.82468 0.0068036 0.527647
584 1 0.980661 0.00956013 0.543663
1966 1 0.337693 0.0928298 0.511606
1906 1 0.525501 0.085213 0.547359
670 1 0.734432 0.0610443 0.501805
385 1 0.933162 0.0661033 0.548883
722 1 0.0643184 0.146322 0.52061
733 1 0.211629 0.13914 0.533095
505 1 0.610837 0.107722 0.519509
886 1 0.679063 0.112172 0.50948
1149 1 0.742358 0.130735 0.526564
1528 1 0.822306 0.115707 0.512235
966 1 0.899823 0.128315 0.548377
930 1 0.992322 0.134763 0.519491
1839 1 0.135783 0.158048 0.529266
1189 1 0.261058 0.189709 0.541294
185 1 0.333479 0.189396 0.538216
719 1 0.441291 0.157231 0.535741
92 1 0.529778 0.189819 0.535712
1297 1 0.616003 0.188172 0.508585
366 1 0.931628 0.177961 0.504029
1502 1 0.407706 0.220479 0.515579
272 1 0.581095 0.238048 0.545711
473 1 0.897392 0.249619 0.527677
20 1 0.0145732 0.261567 0.540481
936 1 0.117315 0.278568 0.515936
309 1 0.320118 0.271316 0.532364
446 1 0.421021 0.294568 0.509197
522 1 0.50408 0.294397 0.522689
1538 1 0.812004 0.269639 0.522866
659 1 0.272796 0.324369 0.540014
286 1 0.125987 0.374553 0.542984
1627 1 0.234476 0.385893 0.503553
871 1 0.336679 0.398618 0.513471
1411 1 0.410378 0.36575 0.506025
279 1 0.560135 0.373479 0.542354
1698 1 0.926005 0.37139 0.517928
2017 1 0.180213 0.435561 0.539579
1164 1 0.27356 0.443603 0.527972
1253 1 0.671521 0.425564 0.541084
2025 1 0.748559 0.408913 0.525258
1709 1 0.932049 0.442199 0.544342
146 1 0.991767 0.408925 0.534669
520 1 0.380371 0.453801 0.524025
727 1 0.616165 0.466707 0.501748
1540 1 0.715141 0.493104 0.513105
1533 1 0.98019 0.489878 0.521796
1114 1 0.0632788 0.0121733 0.564427
1845 1 0.58318 0.0394424 0.569209
903 1 0.0221353 0.0796308 0.559015
589 1 0.10997 0.0690893 0.550864
1934 1 0.210841 0.0551288 0.553069
224 1 0.371247 0.0523709 0.59163
1335 1 0.439094 0.0881305 0.5897
1296 1 0.778468 0.0673169 0.567701
906 1 0.856239 0.0677353 0.554429
761 1 0.0914976 0.145247 0.582943
451 1 0.280802 0.118457 0.563061
977 1 0.583442 0.113928 0.584254
359 1 0.659611 0.116806 0.582166
468 1 0.955128 0.127726 0.588635
1188 1 0.401469 0.189741 0.586228
1600 1 0.627919 0.18203 0.590662
1587 1 0.692138 0.199741 0.59982
558 1 0.752197 0.198473 0.55027
104 1 0.00680802 0.203052 0.582852
1024 1 0.0772092 0.236726 0.562903
447 1 0.178006 0.210231 0.558995
356 1 0.464605 0.220754 0.587911
913 1 0.837245 0.211283 0.554365
220 1 0.65371 0.257211 0.597511
68 1 0.712652 0.277254 0.566548
251 1 0.942839 0.280437 0.597489
1664 1 0.00339308 0.340747 0.552149
685 1 0.0827191 0.321291 0.562726
738 1 0.168938 0.326513 0.559489
1724 1 0.337651 0.344839 0.574171
656 1 0.591362 0.301241 0.596321
442 1 0.664189 0.323566 0.555795
1274 1 0.793486 0.321822 0.563579
1277 1 0.864684 0.311516 0.556479
962 1 0.397517 0.390163 0.582377
524 1 0.469584 0.385913 0.577999
1517 1 0.637086 0.384219 0.585941
593 1 0.727612 0.391561 0.593266
1505 1 0.862759 0.387991 0.57873
1357 1 0.938707 0.352552 0.587896
681 1 0.0742953 0.410208 0.572762
690 1 0.339744 0.440826 0.591207
557 1 0.284793 0.485027 0.581469
1287 1 0.521081 0.453379 0.566074
654 1 0.577256 0.49553 0.55719
178 1 0.780097 0.481373 0.599755
424 1 0.489881 0.0395167 0.618547
596 1 0.733836 0.0345869 0.621437
1418 1 0.808309 0.0407823 0.630572
1225 1 0.894988 0.041821 0.608567
519 1 0.15336 0.091576 0.612838
397 1 0.23791 0.0953475 0.614464
703 1 0.305205 0.070846 0.609736
46 1 0.665519 0.0533359 0.637931
198 1 0.975856 0.0502746 0.607342
1719 1 0.0123335 0.108339 0.62545
295 1 0.193146 0.149311 0.615743
1381 1 0.384632 0.130058 0.616026
984 1 0.533501 0.101516 0.638715
1607 1 0.300064 0.151523 0.624174
1778 1 0.459424 0.151204 0.607068
945 1 0.780609 0.150368 0.606511
1975 1 0.884875 0.160742 0.618444
1300 1 0.976482 0.17133 0.643513
1744 1 0.0534855 0.214967 0.635134
241 1 0.164227 0.217804 0.634927
1897 1 0.256337 0.221407 0.605542
1438 1 0.34388 0.210969 0.626189
1973 1 0.536373 0.212935 0.601334
1854 1 0.766632 0.2209 0.6229
1166 1 0.927045 0.219159 0.625375
959 1 0.00308105 0.260462 0.636188
376 1 0.117792 0.281364 0.610225
806 1 0.216437 0.269724 0.635522
1417 1 0.310702 0.283001 0.606044
1268 1 0.400834 0.275952 0.602142
152 1 0.537524 0.284909 0.63846
1508 1 0.83637 0.258891 0.613459
390 1 0.241686 0.320062 0.600923
1486 1 0.471573 0.305061 0.629461
1306 1 0.526868 0.347408 0.608794
54 1 0.758676 0.332524 0.648648
1737 1 0.0378229 0.378006 0.648416
942 1 0.105787 0.360035 0.624146
591 1 0.169935 0.379152 0.611614
71 1 0.244672 0.393865 0.603263
1696 1 0.607634 0.356478 0.640029
1681 1 0.857723 0.369214 0.649537
24 1 0.113023 0.435368 0.624403
841 1 0.495917 0.437496 0.641271
1883 1 0.574964 0.415038 0.621815
1334 1 0.792848 0.407773 0.632191
19 1 0.908112 0.425588 0.643819
1398 1 0.983508 0.408304 0.60585
97 1 0.0326058 0.455801 0.638522
1265 1 0.217278 0.458222 0.613447
5 1 0.414614 0.458233 0.615841
622 1 0.705575 0.47249 0.605519
887 1 0.852371 0.454759 0.614539
250 1 0.94387 0.499818 0.623612
98 1 0.0777879 0.0431846 0.661041
788 1 0.257929 0.030995 0.651982
135 1 0.746789 0.00882056 0.687333
1313 1 0.861823 0.0148629 0.672694
30 1 0.187422 0.0586702 0.665807
48 1 0.328541 0.0540339 0.687655
1678 1 0.405884 0.0683322 0.655809
1797 1 0.600522 0.079404 0.655993
709 1 0.763723 0.0766627 0.671104
1515 1 0.0722869 0.116047 0.657007
1623 1 0.144559 0.147286 0.67403
1818 1 0.215864 0.141805 0.689818
1825 1 0.41884 0.140403 0.687776
1016 1 0.653045 0.107053 0.694397
2042 1 0.720902 0.134229 0.657427
1224 1 0.836739 0.132709 0.690662
79 1 0.889005 0.101449 0.661597
824 1 0.344675 0.160248 0.682783
821 1 0.491223 0.156641 0.676547
795 1 0.574288 0.152965 0.691888
651 1 0.660314 0.178384 0.69297
789 1 0.811086 0.198891 0.669058
425 1 0.10822 0.203547 0.699466
1861 1 0.212075 0.227976 0.697142
1543 1 0.283279 0.211423 0.672188
143 1 0.393815 0.224774 0.674442
1604 1 0.469444 0.227024 0.662278
953 1 0.586697 0.236578 0.655609
352 1 0.683367 0.242398 0.679088
756 1 0.0670112 0.29855 0.692875
1322 1 0.333122 0.271167 0.682857
1828 1 0.489731 0.284993 0.696877
1383 1 0.608833 0.29525 0.688939
1570 1 0.933109 0.296763 0.684781
750 1 0.225476 0.343256 0.682637
1943 1 0.408364 0.309351 0.67062
1867 1 0.678342 0.324283 0.654685
1964 1 0.29105 0.377158 0.654311
191 1 0.362083 0.360996 0.662485
627 1 0.457537 0.365311 0.680511
394 1 0.543154 0.3713 0.681588
512 1 0.700579 0.394844 0.683348
1267 1 0.966716 0.360365 0.696271
678 1 0.193922 0.426458 0.676899
1338 1 0.393599 0.421011 0.677382
1082 1 0.625522 0.41814 0.673133
130 1 0.845134 0.435201 0.686999
1250 1 0.951862 0.446168 0.69992
470 1 0.0902138 0.464146 0.690693
931 1 0.274941 0.481017 0.65413
884 1 0.378295 0.496725 0.675495
904 1 0.454108 0.487997 0.669556
1629 1 0.55197 0.451971 0.691581
1203 1 0.666511 0.487213 0.698913
1750 1 0.0233173 0.0479967 0.710243
1420 1 0.133666 0.045384 0.70963
740 1 0.389317 0.0220837 0.720356
1775 1 0.545969 0.0137801 0.738052
1281 1 0.647697 0.0207489 0.708116
426 1 0.182476 0.0933752 0.725186
1894 1 0.253889 0.0920973 0.723134
1473 1 0.425843 0.0966844 0.74818
1804 1 0.483391 0.0713638 0.711778
1021 1 0.805046 0.0779323 0.742902
916 1 0.88424 0.0853527 0.731106
1536 1 0.948326 0.0621238 0.720808
725 1 0.114861 0.132051 0.746842
1529 1 0.990279 0.117676 0.719218
1642 1 0.0324433 0.194463 0.721502
928 1 0.170702 0.197251 0.7435
857 1 0.283522 0.159602 0.72698
1148 1 0.404591 0.185021 0.74105
1105 1 0.749259 0.178448 0.708087
1820 1 0.843376 0.187432 0.737495
1071 1 0.901887 0.152116 0.710892
1213 1 0.960789 0.192581 0.720775
1434 1 0.528782 0.214877 0.711544
70 1 0.613221 0.224907 0.725545
1990 1 0.885973 0.230807 0.701935
49 1 0.000173591 0.290132 0.723808
1195 1 0.431219 0.253611 0.741835
304 1 0.715393 0.294755 0.727065
419 1 0.785265 0.252543 0.713899
327 1 0.163275 0.311931 0.70415
817 1 0.280435 0.318353 0.728637
1323 1 0.451862 0.335826 0.745853
482 1 0.545144 0.317758 0.740039
369 1 0.832125 0.315585 0.700376
1000 1 0.0945993 0.394473 0.707718
923 1 0.329795 0.369123 0.729308
1355 1 0.646223 0.36971 0.725173
1196 1 0.772594 0.351212 0.718367
1316 1 0.0256607 0.418132 0.705953
551 1 0.142373 0.441938 0.739399
34 1 0.327308 0.439953 0.729547
976 1 0.399282 0.453314 0.740199
882 1 0.788985 0.464131 0.71747
205 1 0.168602 0.0350664 0.778935
1569 1 0.25071 0.0315381 0.794306
1047 1 0.343549 0.00674205 0.779826
221 1 0.456332 0.0182042 0.764424
1796 1 0.820299 0.0272661 0.79515
1476 1 0.947502 0.0145998 0.778113
1891 1 0.0559838 0.0916745 0.761487
1086 1 0.30885 0.0707637 0.768494
1319 1 0.549841 0.0821998 0.757063
393 1 0.700416 0.0502677 0.751132
55 1 0.216414 0.140551 0.769576
1369 1 0.346237 0.134324 0.762492
1733 1 0.502125 0.109935 0.794729
715 1 0.603506 0.136373 0.76305
1624 1 0.684681 0.118962 0.782275
1566 1 0.754235 0.124379 0.76114
1534 1 0.848022 0.122134 0.779959
868 1 0.952712 0.126851 0.778918
1999 1 0.0551275 0.169066 0.784057
1427 1 0.895166 0.172019 0.793952
1158 1 0.0403252 0.246064 0.797005
726 1 0.218726 0.215505 0.792563
1609 1 0.539402 0.215778 0.789633
432 1 0.672686 0.24185 0.765924
1240 1 0.100965 0.274877 0.762037
885 1 0.221801 0.292212 0.764995
192 1 0.31021 0.25003 0.759731
4 1 0.50307 0.273923 0.774243
1414 1 0.625374 0.297329 0.764729
745 1 0.813673 0.295945 0.774235
585 1 0.000240677 0.302665 0.798453
429 1 0.0518436 0.337573 0.758898
214 1 0.364779 0.308708 0.796352
158 1 0.897765 0.314732 0.752165
262 1 0.158273 0.36635 0.762402
990 1 0.230729 0.367354 0.750964
1843 1 0.578832 0.379622 0.76652
759 1 0.672428 0.353334 0.799887
400 1 0.750167 0.392521 0.774623
1215 1 0.842854 0.38467 0.782846
1752 1 0.962825 0.359882 0.79357
1770 1 0.0354977 0.402268 0.786835
1643 1 0.268346 0.439602 0.778153
1390 1 0.458375 0.413667 0.799394
873 1 0.518315 0.416465 0.762463
536 1 0.665312 0.427377 0.775461
1091 1 0.903641 0.419262 0.762433
1080 1 0.216002 0.487388 0.75155
16 1 0.468271 0.48707 0.768563
576 1 0.536836 0.483608 0.788608
1422 1 0.603266 0.475294 0.765236
2024 1 0.731959 0.498328 0.752744
1924 1 0.0706343 0.036626 0.804854
1612 1 0.336353 0.0437694 0.843241
1072 1 0.559786 0.00746571 0.816258
2011 1 0.00601675 0.0973237 0.827629
665 1 0.259913 0.0956999 0.813667
1580 1 0.412308 0.0637068 0.809599
1874 1 0.636846 0.0530528 0.809109
1366 1 0.742291 0.0743449 0.830867
140 1 0.898217 0.0617039 0.813424
160 1 0.416992 0.137982 0.809847
534 1 0.552548 0.141742 0.844317
388 1 0.814025 0.117884 0.847174
1260 1 0.134322 0.19015 0.827434
1659 1 0.481034 0.188585 0.830099
646 1 0.627196 0.176982 0.814828
804 1 0.729861 0.185786 0.801355
1070 1 0.825114 0.186251 0.8138
1092 1 0.978259 0.190745 0.800208
1671 1 0.41053 0.226731 0.812047
1255 1 0.0878219 0.290685 0.838589
263 1 0.151425 0.258403 0.836203
693 1 0.266499 0.265401 0.81946
194 1 0.567574 0.2833 0.809485
427 1 0.72057 0.296772 0.831235
491 1 0.783705 0.255216 0.839923
2040 1 0.863705 0.25687 0.835543
6 1 0.938594 0.258445 0.843171
1032 1 0.141158 0.336782 0.835459
9 1 0.205057 0.310191 0.82858
480 1 0.429108 0.313469 0.82335
2003 1 0.823308 0.335806 0.833171
259 1 0.0506757 0.355424 0.842565
1597 1 0.305104 0.357303 0.817426
1309 1 0.376561 0.393688 0.808677
1233 1 0.506566 0.35716 0.811329
720 1 0.102084 0.405579 0.827648
1365 1 0.182945 0.424084 0.809226
2027 1 0.56787 0.422015 0.836205
832 1 0.818748 0.445499 0.843665
1182 1 0.891999 0.422652 0.832341
747 1 0.970716 0.410279 0.848165
1935 1 0.121439 0.47754 0.815008
1401 1 0.338373 0.463442 0.807976
1942 1 0.438962 0.488813 0.829673
793 1 0.760153 0.454437 0.803914
1863 1 0.883958 0.492446 0.828626
354 1 0.952879 0.470426 0.810444
1652 1 0.0532851 0.0073882 0.867453
1743 1 0.258105 0.0418228 0.869571
1449 1 0.508068 0.0316702 0.872693
960 1 0.714268 0.0303703 0.873829
1002 1 0.808728 0.0306719 0.870211
1571 1 0.890557 0.0170647 0.887599
762 1 0.965165 0.00510789 0.857912
1107 1 0.0984804 0.0884273 0.854426
1899 1 0.172428 0.0683634 0.850163
768 1 0.770841 0.0867195 0.89538
1394 1 0.950059 0.0764264 0.869482
1596 1 0.176256 0.140615 0.861534
1880 1 0.236505 0.11759 0.89232
1835 1 0.319214 0.14271 0.856425
1278 1 0.385468 0.110888 0.891303
483 1 0.466993 0.108926 0.858